<?xml version="1.0"?>
<VTKFile type="UnstructuredGrid"  version="0.1"  >
<UnstructuredGrid>
<Piece  NumberOfPoints="9261" NumberOfCells="48000">
<Points>
<DataArray  type="Float64"  NumberOfComponents="3"  format="ascii">-3.141592653589793 -3.141592653589793 -3.141592653589793  -2.827433388230814 -3.141592653589793 -3.141592653589793  -2.513274122871834 -3.141592653589793 -3.141592653589793  -2.199114857512855 -3.141592653589793 -3.141592653589793  -1.884955592153876 -3.141592653589793 -3.141592653589793  -1.570796326794897 -3.141592653589793 -3.141592653589793  -1.256637061435917 -3.141592653589793 -3.141592653589793  -0.9424777960769379 -3.141592653589793 -3.141592653589793  -0.6283185307179586 -3.141592653589793 -3.141592653589793  -0.3141592653589793 -3.141592653589793 -3.141592653589793  0 -3.141592653589793 -3.141592653589793  0.3141592653589789 -3.141592653589793 -3.141592653589793  0.6283185307179586 -3.141592653589793 -3.141592653589793  0.9424777960769379 -3.141592653589793 -3.141592653589793  1.256637061435917 -3.141592653589793 -3.141592653589793  1.570796326794897 -3.141592653589793 -3.141592653589793  1.884955592153876 -3.141592653589793 -3.141592653589793  2.199114857512855 -3.141592653589793 -3.141592653589793  2.513274122871834 -3.141592653589793 -3.141592653589793  2.827433388230814 -3.141592653589793 -3.141592653589793  3.141592653589793 -3.141592653589793 -3.141592653589793  -3.141592653589793 -2.827433388230814 -3.141592653589793  -2.827433388230814 -2.827433388230814 -3.141592653589793  -2.513274122871834 -2.827433388230814 -3.141592653589793  -2.199114857512855 -2.827433388230814 -3.141592653589793  -1.884955592153876 -2.827433388230814 -3.141592653589793  -1.570796326794897 -2.827433388230814 -3.141592653589793  -1.256637061435917 -2.827433388230814 -3.141592653589793  -0.9424777960769379 -2.827433388230814 -3.141592653589793  -0.6283185307179586 -2.827433388230814 -3.141592653589793  -0.3141592653589793 -2.827433388230814 -3.141592653589793  0 -2.827433388230814 -3.141592653589793  0.3141592653589789 -2.827433388230814 -3.141592653589793  0.6283185307179586 -2.827433388230814 -3.141592653589793  0.9424777960769379 -2.827433388230814 -3.141592653589793  1.256637061435917 -2.827433388230814 -3.141592653589793  1.570796326794897 -2.827433388230814 -3.141592653589793  1.884955592153876 -2.827433388230814 -3.141592653589793  2.199114857512855 -2.827433388230814 -3.141592653589793  2.513274122871834 -2.827433388230814 -3.141592653589793  2.827433388230814 -2.827433388230814 -3.141592653589793  3.141592653589793 -2.827433388230814 -3.141592653589793  -3.141592653589793 -2.513274122871834 -3.141592653589793  -2.827433388230814 -2.513274122871834 -3.141592653589793  -2.513274122871834 -2.513274122871834 -3.141592653589793  -2.199114857512855 -2.513274122871834 -3.141592653589793  -1.884955592153876 -2.513274122871834 -3.141592653589793  -1.570796326794897 -2.513274122871834 -3.141592653589793  -1.256637061435917 -2.513274122871834 -3.141592653589793  -0.9424777960769379 -2.513274122871834 -3.141592653589793  -0.6283185307179586 -2.513274122871834 -3.141592653589793  -0.3141592653589793 -2.513274122871834 -3.141592653589793  0 -2.513274122871834 -3.141592653589793  0.3141592653589789 -2.513274122871834 -3.141592653589793  0.6283185307179586 -2.513274122871834 -3.141592653589793  0.9424777960769379 -2.513274122871834 -3.141592653589793  1.256637061435917 -2.513274122871834 -3.141592653589793  1.570796326794897 -2.513274122871834 -3.141592653589793  1.884955592153876 -2.513274122871834 -3.141592653589793  2.199114857512855 -2.513274122871834 -3.141592653589793  2.513274122871834 -2.513274122871834 -3.141592653589793  2.827433388230814 -2.513274122871834 -3.141592653589793  3.141592653589793 -2.513274122871834 -3.141592653589793  -3.141592653589793 -2.199114857512855 -3.141592653589793  -2.827433388230814 -2.199114857512855 -3.141592653589793  -2.513274122871834 -2.199114857512855 -3.141592653589793  -2.199114857512855 -2.199114857512855 -3.141592653589793  -1.884955592153876 -2.199114857512855 -3.141592653589793  -1.570796326794897 -2.199114857512855 -3.141592653589793  -1.256637061435917 -2.199114857512855 -3.141592653589793  -0.9424777960769379 -2.199114857512855 -3.141592653589793  -0.6283185307179586 -2.199114857512855 -3.141592653589793  -0.3141592653589793 -2.199114857512855 -3.141592653589793  0 -2.199114857512855 -3.141592653589793  0.3141592653589789 -2.199114857512855 -3.141592653589793  0.6283185307179586 -2.199114857512855 -3.141592653589793  0.9424777960769379 -2.199114857512855 -3.141592653589793  1.256637061435917 -2.199114857512855 -3.141592653589793  1.570796326794897 -2.199114857512855 -3.141592653589793  1.884955592153876 -2.199114857512855 -3.141592653589793  2.199114857512855 -2.199114857512855 -3.141592653589793  2.513274122871834 -2.199114857512855 -3.141592653589793  2.827433388230814 -2.199114857512855 -3.141592653589793  3.141592653589793 -2.199114857512855 -3.141592653589793  -3.141592653589793 -1.884955592153876 -3.141592653589793  -2.827433388230814 -1.884955592153876 -3.141592653589793  -2.513274122871834 -1.884955592153876 -3.141592653589793  -2.199114857512855 -1.884955592153876 -3.141592653589793  -1.884955592153876 -1.884955592153876 -3.141592653589793  -1.570796326794897 -1.884955592153876 -3.141592653589793  -1.256637061435917 -1.884955592153876 -3.141592653589793  -0.9424777960769379 -1.884955592153876 -3.141592653589793  -0.6283185307179586 -1.884955592153876 -3.141592653589793  -0.3141592653589793 -1.884955592153876 -3.141592653589793  0 -1.884955592153876 -3.141592653589793  0.3141592653589789 -1.884955592153876 -3.141592653589793  0.6283185307179586 -1.884955592153876 -3.141592653589793  0.9424777960769379 -1.884955592153876 -3.141592653589793  1.256637061435917 -1.884955592153876 -3.141592653589793  1.570796326794897 -1.884955592153876 -3.141592653589793  1.884955592153876 -1.884955592153876 -3.141592653589793  2.199114857512855 -1.884955592153876 -3.141592653589793  2.513274122871834 -1.884955592153876 -3.141592653589793  2.827433388230814 -1.884955592153876 -3.141592653589793  3.141592653589793 -1.884955592153876 -3.141592653589793  -3.141592653589793 -1.570796326794897 -3.141592653589793  -2.827433388230814 -1.570796326794897 -3.141592653589793  -2.513274122871834 -1.570796326794897 -3.141592653589793  -2.199114857512855 -1.570796326794897 -3.141592653589793  -1.884955592153876 -1.570796326794897 -3.141592653589793  -1.570796326794897 -1.570796326794897 -3.141592653589793  -1.256637061435917 -1.570796326794897 -3.141592653589793  -0.9424777960769379 -1.570796326794897 -3.141592653589793  -0.6283185307179586 -1.570796326794897 -3.141592653589793  -0.3141592653589793 -1.570796326794897 -3.141592653589793  0 -1.570796326794897 -3.141592653589793  0.3141592653589789 -1.570796326794897 -3.141592653589793  0.6283185307179586 -1.570796326794897 -3.141592653589793  0.9424777960769379 -1.570796326794897 -3.141592653589793  1.256637061435917 -1.570796326794897 -3.141592653589793  1.570796326794897 -1.570796326794897 -3.141592653589793  1.884955592153876 -1.570796326794897 -3.141592653589793  2.199114857512855 -1.570796326794897 -3.141592653589793  2.513274122871834 -1.570796326794897 -3.141592653589793  2.827433388230814 -1.570796326794897 -3.141592653589793  3.141592653589793 -1.570796326794897 -3.141592653589793  -3.141592653589793 -1.256637061435917 -3.141592653589793  -2.827433388230814 -1.256637061435917 -3.141592653589793  -2.513274122871834 -1.256637061435917 -3.141592653589793  -2.199114857512855 -1.256637061435917 -3.141592653589793  -1.884955592153876 -1.256637061435917 -3.141592653589793  -1.570796326794897 -1.256637061435917 -3.141592653589793  -1.256637061435917 -1.256637061435917 -3.141592653589793  -0.9424777960769379 -1.256637061435917 -3.141592653589793  -0.6283185307179586 -1.256637061435917 -3.141592653589793  -0.3141592653589793 -1.256637061435917 -3.141592653589793  0 -1.256637061435917 -3.141592653589793  0.3141592653589789 -1.256637061435917 -3.141592653589793  0.6283185307179586 -1.256637061435917 -3.141592653589793  0.9424777960769379 -1.256637061435917 -3.141592653589793  1.256637061435917 -1.256637061435917 -3.141592653589793  1.570796326794897 -1.256637061435917 -3.141592653589793  1.884955592153876 -1.256637061435917 -3.141592653589793  2.199114857512855 -1.256637061435917 -3.141592653589793  2.513274122871834 -1.256637061435917 -3.141592653589793  2.827433388230814 -1.256637061435917 -3.141592653589793  3.141592653589793 -1.256637061435917 -3.141592653589793  -3.141592653589793 -0.9424777960769379 -3.141592653589793  -2.827433388230814 -0.9424777960769379 -3.141592653589793  -2.513274122871834 -0.9424777960769379 -3.141592653589793  -2.199114857512855 -0.9424777960769379 -3.141592653589793  -1.884955592153876 -0.9424777960769379 -3.141592653589793  -1.570796326794897 -0.9424777960769379 -3.141592653589793  -1.256637061435917 -0.9424777960769379 -3.141592653589793  -0.9424777960769379 -0.9424777960769379 -3.141592653589793  -0.6283185307179586 -0.9424777960769379 -3.141592653589793  -0.3141592653589793 -0.9424777960769379 -3.141592653589793  0 -0.9424777960769379 -3.141592653589793  0.3141592653589789 -0.9424777960769379 -3.141592653589793  0.6283185307179586 -0.9424777960769379 -3.141592653589793  0.9424777960769379 -0.9424777960769379 -3.141592653589793  1.256637061435917 -0.9424777960769379 -3.141592653589793  1.570796326794897 -0.9424777960769379 -3.141592653589793  1.884955592153876 -0.9424777960769379 -3.141592653589793  2.199114857512855 -0.9424777960769379 -3.141592653589793  2.513274122871834 -0.9424777960769379 -3.141592653589793  2.827433388230814 -0.9424777960769379 -3.141592653589793  3.141592653589793 -0.9424777960769379 -3.141592653589793  -3.141592653589793 -0.6283185307179586 -3.141592653589793  -2.827433388230814 -0.6283185307179586 -3.141592653589793  -2.513274122871834 -0.6283185307179586 -3.141592653589793  -2.19
[...]
<PointData  Scalars="f_20852"> 
<DataArray  type="Float64"  Name="f_20852"  format="ascii">-2.5448500505283328e-02  1.5717217786687435e-01  -6.3326818020342911e-03  1.0656870776599080e-01  7.7518039102887251e-02  -5.2369422026656773e-02  -1.8390695005611490e-01  -2.0980723752040431e-01  -1.1243592023195909e-01  -6.0053092909701594e-02  2.4887830418082450e-02  -6.1670376434327920e-02  -1.1389966495628545e-01  -2.1139660620344827e-01  -1.8524916897033053e-01  -5.3450900783068252e-02  7.6707613842890265e-02  1.0606454198556750e-01  -6.3214231205346401e-03  1.5789101042483952e-01  -2.5448500505283328e-02  6.0891743818144085e-02  -1.0942887760021274e+00  -8.1125018867750343e-01  -6.6136725743245151e-01  -8.0920932548745883e-01  -1.0602820488380618e+00  -1.2127683372223985e+00  -1.1430187857955203e+00  -9.8349101129469441e-01  -1.2587845479094337e+00  -1.5723496621229871e-01  1.0937836272217167e+00  1.2311221220622524e+00  1.4286774933737176e+00  1.3061526198129376e+00  1.0769782656610656e+00  7.6212212083967323e-01  6.3980734338868228e-01  6.2255607975190708e-01  1.2585699218049085e+00  6.0891743818144085e-02  1.1401515524023487e-01  -1.2315901176263810e+00  -1.0362319983764891e-01  -2.0764199215096698e-02  2.3779615766869638e-02  1.1719580762189413e-02  4.1631511230089221e-02  -4.9160884282021332e-02  -1.3269891900312669e-02  -6.2321822512768421e-01  7.0017311078113395e-03  8.1087319356685861e-01  1.0375052283657267e-01  3.2477967808172303e-02  -7.4453358088976143e-02  -6.5830369144351350e-02  -6.6398462556376298e-02  2.4963424798003887e-02  1.2958571833991425e-02  9.8265175709737340e-01  1.1401515524023487e-01  2.1234607186340529e-01  -1.4292511198961277e+00  -3.2583452935088540e-02  -1.3335322660869889e-01  -1.0871721935049299e-01  -1.4080488830676585e-01  -9.9939397066881180e-02  -1.5275247953753709e-01  -2.5023287746059737e-02  -6.4051451446951835e-01  -1.0520002234109202e-01  6.6053659548154720e-01  2.0690216929023338e-02  1.3335852476663959e-01  1.2582646480548426e-01  1.4565429150042103e-01  1.2668033837636680e-01  1.5265752388422751e-01  4.8774813817541868e-02  1.1419713973371748e+00  2.1234607186340529e-01  1.8661178932841085e-01  -1.3065321590219516e+00  7.4461760071750108e-02  -1.2570748170181534e-01  -6.2954469852572456e-02  -5.7278761418714894e-02  -3.8456136423009539e-02  -1.2667567873138000e-01  6.6473368808063052e-02  -7.6299226875431958e-01  -7.5371509853261173e-02  8.0796803404175843e-01  -2.3740532375925830e-02  1.0879544669649710e-01  6.3076647356159352e-02  7.0496898962868357e-02  3.8512612384785254e-02  9.9962058463245657e-02  -4.1833473298786263e-02  1.2112747708566862e+00  1.8661178932841085e-01  5.4741239087848843e-02  -1.0772233376469222e+00  6.5910793504384987e-02  -1.4551785600273517e-01  -7.0411783260871857e-02  -6.4812825297995078e-02  -7.0369534434308170e-02  -1.4553937873554312e-01  6.5887152330993362e-02  -1.0779247072589990e+00  5.5459543886968637e-02  1.0587300158849959e+00  -1.1756294530285699e-02  1.4080777582693441e-01  5.7344346932918608e-02  6.4846418193747715e-02  5.7258870832628143e-02  1.4079794145599833e-01  -1.1797798370171734e-02  1.0586743279950999e+00  5.4741239087848843e-02  -7.5881086048333796e-02  -7.6241511254957561e-01  6.6489929615330415e-02  -1.2661705574189683e-01  -3.8507138683627422e-02  -5.7224398499246369e-02  -6.2961084956425911e-02  -1.2565975186907752e-01  7.4373152561253611e-02  -1.3070711042469390e+00  1.8732024625059573e-01  1.2112261390320804e+00  -4.1713990513751520e-02  1.0004547614682535e-01  3.8620787709616411e-02  7.0519188670580477e-02  6.3065585743959235e-02  1.0884434817741048e-01  -2.3724422570472088e-02  8.0793881493281861e-01  -7.5881086048333796e-02  -1.0550182419286692e-01  -6.4011971806298495e-01  -2.4978756186752216e-02  -1.5261946201470422e-01  -9.9944696008726935e-02  -1.4068844112988155e-01  -1.0875236215614092e-01  -1.3318282652715766e-01  -3.2797836990043523e-02  -1.4293653036625844e+00  2.1306736502360263e-01  1.1417695637963241e+00  4.8953792685790060e-02  1.5271234951209459e-01  1.2672503971752155e-01  1.4562592654115197e-01  1.2576676431747502e-01  1.3333787733423341e-01  2.0667718980299656e-02  6.6071282387732067e-01  -1.0550182419286692e-01  6.6966229297104607e-03  -6.2315902173010262e-01  -1.3372929527773679e-02  -4.9126347613208610e-02  4.1616026960048277e-02  1.1763081439034501e-02  2.3753441354284085e-02  -2.0560368503942269e-02  -1.0415704407621520e-01  -1.2313372864127896e+00  1.1474941261961107e-01  9.8254505675788362e-01  1.3167373798342437e-02  2.5017358711745676e-02  -6.6345447675233274e-02  -6.5740713805199816e-02  -7.4363924623524813e-02  3.2641212483362450e-02  1.0399655165182951e-01  8.1116153089596232e-01  6.6966229297104607e-03  -1.5758251749751451e-01  -1.2587365045602803e+00  -9.8336993953222596e-01  -1.1430131529106811e+00  -1.2127117359462756e+00  -1.0600897441362378e+00  -8.0887928765473593e-01  -6.6123324105820269e-01  -8.1146972440497611e-01  -1.0937212768084716e+00  6.1343405631627462e-02  1.2582409969623656e+00  6.2316699181779334e-01  6.4037407926022882e-01  7.6266477113322884e-01  1.0773902141253349e+00  1.3064822927458615e+00  1.4288509500741626e+00  1.2311216772405540e+00  1.0936900721338803e+00  -1.5758251749751451e-01  2.4635392940307671e-02  -5.9806378992323217e-02  -1.1219378230656718e-01  -2.0980829320166236e-01  -1.8398561675717889e-01  -5.2522875644072382e-02  7.7188562332404120e-02  1.0614513402939457e-01  -6.3938396809452231e-03  1.5748176300224284e-01  -2.5579350973449110e-02  1.5643100528457821e-01  -7.1977281903852072e-03  1.0537984452314601e-01  7.6105626304301302e-02  -5.4073357107052800e-02  -1.8569880194984223e-01  -2.1173892825584195e-01  -1.1416700791616012e-01  -6.2131601118727835e-02  2.4635392940307671e-02  -1.5867771131910435e-01  1.0938027942394326e+00  1.2308285890466271e+00  1.4284272382111567e+00  1.3057044523005075e+00  1.0766005559802658e+00  7.6199933473302028e-01  6.3979763133749090e-01  6.2274843115269685e-01  1.2580820726183459e+00  6.0674771403743381e-02  -1.0940339529435494e+00  -8.1085315397205415e-01  -6.6067736696404811e-01  -8.0820930255068968e-01  -1.0592124258479496e+00  -1.2119327278059140e+00  -1.1425590515448609e+00  -9.8304846495763643e-01  -1.2586615125790699e+00  -1.5867771131910435e-01  5.3654082841582762e-03  8.1121186813214619e-01  1.0363299491171439e-01  3.2371813328650419e-02  -7.4498999179395647e-02  -6.5801368053327189e-02  -6.6310047051791304e-02  2.5026786368033634e-02  1.3107700350004454e-02  9.8262356551589469e-01  1.1395571743387595e-01  -1.2314702163456235e+00  -1.0355022736914293e-01  -2.0580543968611188e-02  2.3795608801047835e-02  1.1797970548939198e-02  4.1690905234892613e-02  -4.8968211140054084e-02  -1.3104852132251489e-02  -6.2236153989415721e-01  5.3654082841582762e-03  -1.0692368119516532e-01  6.6132089053552312e-01  2.0759904801642037e-02  1.3344772919002124e-01  1.2586309851534808e-01  1.4559459882188427e-01  1.2670090145950735e-01  1.5267549483580931e-01  4.8883590224320379e-02  1.1420138690375008e+00  2.1189382041752153e-01  -1.4290554603461012e+00  -3.2410020482609075e-02  -1.3324130029664236e-01  -1.0872527429398313e-01  -1.4069197860256202e-01  -9.9911992759360899e-02  -1.5262548324785935e-01  -2.4989174903620206e-02  -6.3963092616877915e-01  -1.0692368119516532e-01  -7.7374029451058410e-02  8.0889423810786631e-01  -2.3748530178521993e-02  1.0881528279642561e-01  6.3105244704128968e-02  7.0489135361199606e-02  3.8603451053374246e-02  1.0011644374045253e-01  -4.1705219190599781e-02  1.2118578574297327e+00  1.8563195821346842e-01  -1.3060468837541857e+00  7.4644864844568407e-02  -1.2572842178446555e-01  -6.2981341889671458e-02  -5.7166337063018713e-02  -3.8428518588703948e-02  -1.2663464093687948e-01  6.6507947817240773e-02  -7.6198098136538372e-01  -7.7374029451058410e-02  5.3289152146503413e-02  1.0598125616497336e+00  -1.1796544633687452e-02  1.4084112826223558e-01  5.7350311427830647e-02  6.4874141159695892e-02  5.7312855203724304e-02  1.4089006208779228e-01  -1.1566366096732530e-02  1.0596096050374577e+00  5.3167331092689535e-02  -1.0764246755074316e+00  6.6056150222931403e-02  -1.4552910174447775e-01  -7.0368903298175897e-02  -6.4716777458324257e-02  -7.0390383712262070e-02  -1.4556534017985731e-01  6.6089025523796766e-02  -1.0769445461429228e+00  5.3289152146503413e-02  1.8562245416936324e-01  1.2120945402759653e+00  -4.1745185562842957e-02  1.0001747940210702e-01  3.8602745597682300e-02  7.0528744394376078e-02  6.3098537515634587e-02  1.0891541800176860e-01  -2.3508901216159263e-02  8.0875879219687508e-01  -7.7521506829631659e-02  -7.6157285824107457e-01  6.6361585753979352e-02  -1.2664322151075505e-01  -3.8437082447941959e-02  -5.7218544639025516e-02  -6.2986177180374275e-02  -1.2576340365054212e-01  7.4677683885934848e-02  -1.3063237332046438e+00  1.8562245416936324e-01  2.1188510890551868e-01  1.1423217412856776e+00  4.8855083356766638e-02  1.5264483417906424e-01  1.2665095910683324e-01  1.4560117689522151e-01  1.2587162187119522e-01  1.3357994576509558e-01  2.0979494660124477e-02  6.6124887998167470e-01  -1.0712724615761270e-01  -6.3933863051974615e-01  -2.5207890473526152e-02  -1.5270817807104456e-01  -9.9967457306853857e-02  -1.4077690093439518e-01  -1.0876071791939826e-01  -1.3325941928389648e-01  -3.2431372682451436e-02  -1.4290296171549348e+00  2.1188510890551868e-01  1.1409037131276004e-01  9.8298545796935355e-01  1.3071083866165185e-02  2.5081889422449263e-02  -6.6313282398881387e-02  -6.5720164239250992e-02  -7.4283399728894736e-02  3.2672077544238745e-02  1.0394475154794049e-01  8.1115608594668154e-01  5.2565834900506958e-03  -6.2225659531112498e-01  -1.3250320840114771e-02  -4.8993277906251423e-02  4.1690542245093991e-02  1.1806976303150774e-02  2.3792076140484342e-02  -2.0586036131326112e-02  -1.0374698290165958e-01  -1.2313093630896477e+00  1.1409037131276004e-01  6.0959030190821106e-02  1.2586833623231530e+00  6.2275921427999925e-01  6.4000735819009358e-01  7.6221986383664386e-01  1.0769241244172691e+00  1.3059150897731397e+00  1.4283569513994410e+00  1.2306676040140394e+00  1.0936632463604243e+00  -1.5863155744275190e-01  -1.2586686378284173e+00  -9.8317916681566264e-01  -1.1426830663600591e+00  -1.2122421123998406e+00  -1.0596062383186748e+00  -8.0856559555991270e-01  -6.6100415139647173e-01  -8.1131551683664715e-01  -1.0939656657048118e+00  6.0959030190821106e-02  -2.5448500505283328e-02  1.5717217786687435e-01  -6.3326818020342911e-03  1.0656870776599080e-01  7.7518039102887251e-02  -5.2369422026656773e-02  -1.8390695005611490e-01  -2.0980723752040431e-01  -1.1243592023195909e-01  -6.0053092909701594e-02  2.4887830418082450e-02  -6.1670376434327920e-02  -1.1389966495628545e-01  -2.1139660620344827e-01  -1.8524916897033053e-01  -5.3450900783068252e-02  7.6707613842890265e-02  1.0606454198556750e-01  -6.3214231205346401e-03  1.5789101042483952e-01  -2.5448500505283328e-02  -6.0896958955952624e-02  1.1261835598165144e-01  -4.3751352313530362e-03  1.2923515413707096e-01  1.3978072953294354e-01  6.4732933716519642e-02  -1.2771793826412720e-01  -2.7189145925718461e-01  -2.9940239121870693e-01  -1.4125186801702366e-01  6.0452015617487025e-02  3.7827501370745455e-02  1.1842087333741494e-02  -2.0871973887162562e-01  -2.9478059091092002e-01  -1.7702315245090458e-01  -2.3549863032661191e-03  2.1930025792681829e-02  -2.5067162088453571e-02  2.0999533297102230e-01  -6.0896958955952624e-02  -3.8962498977149429e-02  -9.1963914717819495e-01  -6.5114914393224466e-01  -5.4836439614779964e-01  -7.4699242988924675e-01  -1.0706929464300234e+00  -1.2443997177901138e+00  -1.1275272540508778e+00  -9.9316980966258539e-01  -1.0825725483056734e+00  -1.1248646050012322e-01  9.1938231872556064e-01  1.0405923622790254e+00  1.2923022923872984e+00  1.3192212335508799e+00  1.1629262594796541e+00  6.9924692452002479e-01  4.9631545605938038e-01  5.0560984412212129e-01  1.1503223177927875e+00  -3.8962498977149429e-02  -1.2276361601939418e-02  -1.0409431802480520e+00  -1.8155600565123813e-02  4.3270618849614757e-02  9.2790537561674422e-02  8.9820837814358567e-02  4.2987585021717178e-02  -3.7326399923073565e-02  -4.0577220265942474e-03  -4.6677066841986536e-01  5.1592355352668880e-03  6.5076652637517707e-01  1.7977800125338488e-02  4.6767859056772325e-02  2.5664695161664274e-02  -1.1251045594795112e-01  -2.3763940152093349e-01  -1.0913470791155407e-01  -5.6862285792292105e-02  9.5230947322735116e-01  -1.2276361601939418e-02  2.0911241365371422e-01  -1.2929942515397082e+00  -4.6978903609524413e-02  -2.3635637009507757e-01  -1.7293906826048369e-01  -3.0560958822523632e-01  -2.7733504193010311e-01  -2.7218600122383041e-01  -5.3518868731678236e-02  -5.1921671049610429e-01  -1.2808443283089882e-01  5.4771215498648629e-01  -4.3419799095369936e-02  2.3643636946266858e-01  2.5293921861546087e-01  2.1226211204563483e-01  1.9963116157086125e-01  2.0198801400969257e-01  6.5493307661647016e-02  1.0771349247059616e+00  2.0911241365371422e-01  2.9570669365465918e-01  -1.3196699695420289e+00  -2.5790289569761714e-02  -2.5266727273527106e-01  -2.8874930382879521e-01  -4.0817943764221232e-01  -3.4263302084880748e-01  -2.7203368476540701e-01  4.9336703743426719e-02  -6.4903850894225690e-01  -1.3805673294945908e-01  7.4595692649038003e-01  -9.2940849920186419e-02  1.7295405133563915e-01  2.8880349247569076e-01  3.8067100214068961e-01  3.0880212587032563e-01  2.5613293912031704e-01  7.0292497141493425e-03  1.0936741455981087e+00  2.9570669365465918e-01  1.7793294085755640e-01  -1.1631220633170420e+00  1.1240582737236680e-01  -2.1189120104677575e-01  -3.8064917457277075e-01  -3.8436688363297944e-01  -4.5434395972184444e-01  -2.8248466802169969e-01  1.3005109697700762e-01  -9.7751808095771064e-01  -6.1950093518232024e-02  1.0694630173062565e+00  -9.0027978361282776e-02  3.0558837880266271e-01  4.0832026567322388e-01  3.8415604247099394e-01  3.7093474244260061e-01  3.5000392441488837e-01  4.0747519615524058e-02  9.4281072594672766e-01  1.7793294085755640e-01  2.8881555976967852e-03  -6.9957013881818453e-01  2.3767475445591904e-01  -1.9929592370552046e-01  -3.0867601150756513e-01  -3.7105590192429250e-01  -3.6061259482153146e-01  -2.1862825476595915e-01  1.1211801892726621e-01  -1.3730298371466680e+00  1.3107117971261131e-01  1.2432304908621503e+00  -4.3113902050162231e-02  2.7734380629014294e-01  3.4270180756404167e-01  4.5420125194595767e-01  3.6055094847684654e-01  2.1714030969239256e-01  -5.3318928009680876e-02  7.0057232656345425e-01  2.8881555976967852e-03  -2.1640863131658986e-02  -4.9660407484539543e-01  1.0924326717478830e-01  -2.0158701589523506e-01  -2.5579253315333872e-01  -3.4976225487418017e-01  -2.1687880420100275e-01  -1.5816286437108099e-01  1.9406709761243153e-02  -1.5513331571870679e+00  2.7508688086967509e-01  1.1262878387312312e+00  3.7166048293084911e-02  2.7219090666218543e-01  2.7198642481346547e-01  2.8235259558090170e-01  2.1880252335062406e-01  1.5880600852313628e-01  -3.4357460871074094e-02  5.4582345073100624e-01  -2.1640863131658986e-02  2.5105887320674893e-02  -5.0616148759831681e-01  5.6636966227205189e-02  -6.5435160488203040e-02  -6.8247622676221665e-03  -4.0554089488264396e-02  5.3512164109535049e-02  3.4679390956056926e-02  -1.0392782899255391e-01  -1.2745090264007108e+00  3.0188797968336550e-01  9.9219038477987886e-01  3.9684085054408390e-03  5.3516927391304966e-02  -4.9216058062555336e-02  -1.2991170426030743e-01  -1.1211162840456086e-01  -1.9304453461374872e-02  1.0394755252699305e-01  6.8519489221170637e-01  2.5105887320674893e-02  -2.0988003630291693e-01  -1.1504808682728316e+00  -9.5274722131388490e-01  -1.0779967302383877e+00  -1.0947733083902058e+00  -9.4387696971609070e-01  -7.0125849460880230e-01  -5.4621607629057400e-01  -6.8540583399615118e-01  -9.8394452382184161e-01  1.4256565573542382e-01  1.0820535810801943e+00  4.6681108201414140e-01  5.1911260195982356e-01  6.4876888080528927e-01  9.7695936491826429e-01  1.3722185779734113e+00  1.5508650565415543e+00  1.2745915796337954e+00  9.8419033998238992e-01  -2.0988003630291693e-01  6.0075117694826298e-02  3.9676740467970033e-02  1.3681756179849847e-02  -2.0708629747934995e-01  -2.9368021919991910e-01  -1.7635657039861016e-01  -2.0288299711713801e-03  2.1922466305183613e-02  -2.5212070539916854e-02  2.0947650310155080e-01  -6.1141133220574170e-02  1.1178536485258000e-01  -5.3530078253026352e-03  1.2803894830350485e-01  1.3849052071972176e-01  6.3114381428712632e-02  -1.2941764908471726e-01  -2.7369265440293172e-01  -3.0121597151796242e-01  -1.4337998835497656e-01  6.0075117694826298e-02  -1.1364144490270693e-01  9.1932961963065718e-01  1.0402200728106121e+00  1.2922024329621560e+00  1.3188220556688066e+00  1.1626479832993168e+00  6.9934108309697463e-01  4.9649680736630603e-01  5.0595392967451736e-01  1.1497811435983341e+00  -3.9217624587419161e-02  -9.1955865417547711e-01  -6.5091891801144242e-01  -5.4788840026118080e-01  -7.4608109921905830e-01  -1.0697238862968377e+00  -1.2437904384280098e+00  -1.1271945262390191e+00  -9.9274809715776524e-01  -1.0826914741530982e+00  -1.1364144490270693e-01  4.0250314551122535e-03  6.5122925853938796e-01  1.7974080014081104e-02  4.6787701152261288e-02  2.5700738311390005e-02  -1.1218924719905743e-01  -2.3738166992781309e-01  -1.0903632455590519e-01  -5.6604543712746307e-02  9.5231954858512169e-01  -1.2247226726630457e-02  -1.0408616490057352e+00  -1.8054665392508364e-02  4.3360570040670322e-02  9.2869122618040714e-02  9.0039517443761027e-02  4.3063643886297298e-02  -3.7246230731565959e-02  -3.7281337002683657e-03  -4.6612794683939773e-01  4.0250314551122535e-03  -1.2940278661919882e-01  5.4843612832844058e-01  -4.3394212504627647e-02  2.3630553725251915e-01  2.5270468099459309e-01  2.1195753907977408e-01  1.9936227756560868e-01  2.0167957175945170e-01  6.5455645525629144e-02  1.0772597328933933e+00  2.0889778812128296e-01  -1.2928841515980249e+00  -4.6806249797958173e-02  -2.3625587711752580e-01  -1.7289150379762308e-01  -3.0551649742735087e-01  -2.7743146809867508e-01  -2.7241879883700976e-01  -5.3503362487195998e-02  -5.1860511344218496e-01  -1.2940278661919882e-01  -1.3965222498962629e-01  7.4687077903522214e-01  -9.2939322723858936e-02  1.7289498212615353e-01  2.8858677601342869e-01  3.8048024430990918e-01  3.0864122313713555e-01  2.5600348658876687e-01  7.0078707352208150e-03  1.0941163793402884e+00  2.9500353741070040e-01  -1.3193154854846771e+00  -2.5548870185531879e-02  -2.5256451599951973e-01  -2.8853282985639983e-01  -4.0801295890277556e-01  -3.4260141188846138e-01  -2.7218520967933374e-01  4.9400460350811630e-02  -6.4823795608055457e-01  -1.3965222498962629e-01  -6.3835794554250064e-02  1.0705075904386205e+00  -9.0093847096225879e-02  3.0550658401770808e-01  4.0812846392195085e-01  3.8411338630342601e-01  3.7104138230215955e-01  3.4995757092921104e-01  4.0815492481172180e-02  9.4340038656950609e-01  1.7678171999283812e-01  -1.1626110701536181e+00  1.1249266086376443e-01  -2.1192000615826001e-01  -3.8031481226595854e-01  -3.8393096021902429e-01  -4.5410250334487129e-01  -2.8257745467557560e-01  1.3026393844423523e-01  -9.7656416526772205e-01  -6.3835794554250064e-02  1.2940256125100133e-01  1.2441169269191321e+00  -4.3312788021899189e-02  2.7735911172019634e-01  3.4267068217342156e-01  4.5436861545668056e-01  3.6056559495501317e-01  2.1699806649487541e-01  -5.3249349213172412e-02  7.0114123365996084e-01  1.7618725706705634e-03  -6.9898640237781329e-01  2.3738254638275336e-01  -1.9929448503461944e-01  -3.0843275647066104e-01  -3.7073911989986219e-01  -3.6032346883736177e-01  -2.1877353431253038e-01  1.1245067026298290e-01  -1.3721766672145514e+00  1.2940256125100133e-01  2.7394442884169640e-01  1.1269982350380912e+00  3.7015505237825083e-02  2.7225921301438638e-01  2.7213201651607200e-01  2.8256638059544364e-01  2.1890511241417712e-01  1.5867363143170227e-01  -3.4264008307373854e-02  5.4627956559084345e-01  -2.2666273702436308e-02  -4.9614862504353002e-01  1.0891732430115361e-01  -2.0146201853350570e-01  -2.5551037328455