<?xml version="1.0"?>
<VTKFile type="UnstructuredGrid"  version="0.1"  >
<UnstructuredGrid>
<Piece  NumberOfPoints="2197" NumberOfCells="10368">
<Points>
<DataArray  type="Float64"  NumberOfComponents="3"  format="ascii">-3.141592653589793 -3.141592653589793 -3.141592653589793  -2.617993877991494 -3.141592653589793 -3.141592653589793  -2.094395102393196 -3.141592653589793 -3.141592653589793  -1.570796326794897 -3.141592653589793 -3.141592653589793  -1.047197551196598 -3.141592653589793 -3.141592653589793  -0.5235987755982987 -3.141592653589793 -3.141592653589793  0 -3.141592653589793 -3.141592653589793  0.5235987755982987 -3.141592653589793 -3.141592653589793  1.047197551196597 -3.141592653589793 -3.141592653589793  1.570796326794897 -3.141592653589793 -3.141592653589793  2.094395102393196 -3.141592653589793 -3.141592653589793  2.617993877991494 -3.141592653589793 -3.141592653589793  3.141592653589793 -3.141592653589793 -3.141592653589793  -3.141592653589793 -2.617993877991494 -3.141592653589793  -2.617993877991494 -2.617993877991494 -3.141592653589793  -2.094395102393196 -2.617993877991494 -3.141592653589793  -1.570796326794897 -2.617993877991494 -3.141592653589793  -1.047197551196598 -2.617993877991494 -3.141592653589793  -0.5235987755982987 -2.617993877991494 -3.141592653589793  0 -2.617993877991494 -3.141592653589793  0.5235987755982987 -2.617993877991494 -3.141592653589793  1.047197551196597 -2.617993877991494 -3.141592653589793  1.570796326794897 -2.617993877991494 -3.141592653589793  2.094395102393196 -2.617993877991494 -3.141592653589793  2.617993877991494 -2.617993877991494 -3.141592653589793  3.141592653589793 -2.617993877991494 -3.141592653589793  -3.141592653589793 -2.094395102393196 -3.141592653589793  -2.617993877991494 -2.094395102393196 -3.141592653589793  -2.094395102393196 -2.094395102393196 -3.141592653589793  -1.570796326794897 -2.094395102393196 -3.141592653589793  -1.047197551196598 -2.094395102393196 -3.141592653589793  -0.5235987755982987 -2.094395102393196 -3.141592653589793  0 -2.094395102393196 -3.141592653589793  0.5235987755982987 -2.094395102393196 -3.141592653589793  1.047197551196597 -2.094395102393196 -3.141592653589793  1.570796326794897 -2.094395102393196 -3.141592653589793  2.094395102393196 -2.094395102393196 -3.141592653589793  2.617993877991494 -2.094395102393196 -3.141592653589793  3.141592653589793 -2.094395102393196 -3.141592653589793  -3.141592653589793 -1.570796326794897 -3.141592653589793  -2.617993877991494 -1.570796326794897 -3.141592653589793  -2.094395102393196 -1.570796326794897 -3.141592653589793  -1.570796326794897 -1.570796326794897 -3.141592653589793  -1.047197551196598 -1.570796326794897 -3.141592653589793  -0.5235987755982987 -1.570796326794897 -3.141592653589793  0 -1.570796326794897 -3.141592653589793  0.5235987755982987 -1.570796326794897 -3.141592653589793  1.047197551196597 -1.570796326794897 -3.141592653589793  1.570796326794897 -1.570796326794897 -3.141592653589793  2.094395102393196 -1.570796326794897 -3.141592653589793  2.617993877991494 -1.570796326794897 -3.141592653589793  3.141592653589793 -1.570796326794897 -3.141592653589793  -3.141592653589793 -1.047197551196598 -3.141592653589793  -2.617993877991494 -1.047197551196598 -3.141592653589793  -2.094395102393196 -1.047197551196598 -3.141592653589793  -1.570796326794897 -1.047197551196598 -3.141592653589793  -1.047197551196598 -1.047197551196598 -3.141592653589793  -0.5235987755982987 -1.047197551196598 -3.141592653589793  0 -1.047197551196598 -3.141592653589793  0.5235987755982987 -1.047197551196598 -3.141592653589793  1.047197551196597 -1.047197551196598 -3.141592653589793  1.570796326794897 -1.047197551196598 -3.141592653589793  2.094395102393196 -1.047197551196598 -3.141592653589793  2.617993877991494 -1.047197551196598 -3.141592653589793  3.141592653589793 -1.047197551196598 -3.141592653589793  -3.141592653589793 -0.5235987755982987 -3.141592653589793  -2.617993877991494 -0.5235987755982987 -3.141592653589793  -2.094395102393196 -0.5235987755982987 -3.141592653589793  -1.570796326794897 -0.5235987755982987 -3.141592653589793  -1.047197551196598 -0.5235987755982987 -3.141592653589793  -0.5235987755982987 -0.5235987755982987 -3.141592653589793  0 -0.5235987755982987 -3.141592653589793  0.5235987755982987 -0.5235987755982987 -3.141592653589793  1.047197551196597 -0.5235987755982987 -3.141592653589793  1.570796326794897 -0.5235987755982987 -3.141592653589793  2.094395102393196 -0.5235987755982987 -3.141592653589793  2.617993877991494 -0.5235987755982987 -3.141592653589793  3.141592653589793 -0.5235987755982987 -3.141592653589793  -3.141592653589793 0 -3.141592653589793  -2.617993877991494 0 -3.141592653589793  -2.094395102393196 0 -3.141592653589793  -1.570796326794897 0 -3.141592653589793  -1.047197551196598 0 -3.141592653589793  -0.5235987755982987 0 -3.141592653589793  0 0 -3.141592653589793  0.5235987755982987 0 -3.141592653589793  1.047197551196597 0 -3.141592653589793  1.570796326794897 0 -3.141592653589793  2.094395102393196 0 -3.141592653589793  2.617993877991494 0 -3.141592653589793  3.141592653589793 0 -3.141592653589793  -3.141592653589793 0.5235987755982987 -3.141592653589793  -2.617993877991494 0.5235987755982987 -3.141592653589793  -2.094395102393196 0.5235987755982987 -3.141592653589793  -1.570796326794897 0.5235987755982987 -3.141592653589793  -1.047197551196598 0.5235987755982987 -3.141592653589793  -0.5235987755982987 0.5235987755982987 -3.141592653589793  0 0.5235987755982987 -3.141592653589793  0.5235987755982987 0.5235987755982987 -3.141592653589793  1.047197551196597 0.5235987755982987 -3.141592653589793  1.570796326794897 0.5235987755982987 -3.141592653589793  2.094395102393196 0.5235987755982987 -3.141592653589793  2.617993877991494 0.5235987755982987 -3.141592653589793  3.141592653589793 0.5235987755982987 -3.141592653589793  -3.141592653589793 1.047197551196597 -3.141592653589793  -2.617993877991494 1.047197551196597 -3.141592653589793  -2.094395102393196 1.047197551196597 -3.141592653589793  -1.570796326794897 1.047197551196597 -3.141592653589793  -1.047197551196598 1.047197551196597 -3.141592653589793  -0.5235987755982987 1.047197551196597 -3.141592653589793  0 1.047197551196597 -3.141592653589793  0.5235987755982987 1.047197551196597 -3.141592653589793  1.047197551196597 1.047197551196597 -3.141592653589793  1.570796326794897 1.047197551196597 -3.141592653589793  2.094395102393196 1.047197551196597 -3.141592653589793  2.617993877991494 1.047197551196597 -3.141592653589793  3.141592653589793 1.047197551196597 -3.141592653589793  -3.141592653589793 1.570796326794897 -3.141592653589793  -2.617993877991494 1.570796326794897 -3.141592653589793  -2.094395102393196 1.570796326794897 -3.141592653589793  -1.570796326794897 1.570796326794897 -3.141592653589793  -1.047197551196598 1.570796326794897 -3.141592653589793  -0.5235987755982987 1.570796326794897 -3.141592653589793  0 1.570796326794897 -3.141592653589793  0.5235987755982987 1.570796326794897 -3.141592653589793  1.047197551196597 1.570796326794897 -3.141592653589793  1.570796326794897 1.570796326794897 -3.141592653589793  2.094395102393196 1.570796326794897 -3.141592653589793  2.617993877991494 1.570796326794897 -3.141592653589793  3.141592653589793 1.570796326794897 -3.141592653589793  -3.141592653589793 2.094395102393196 -3.141592653589793  -2.617993877991494 2.094395102393196 -3.141592653589793  -2.094395102393196 2.094395102393196 -3.141592653589793  -1.570796326794897 2.094395102393196 -3.141592653589793  -1.047197551196598 2.094395102393196 -3.141592653589793  -0.5235987755982987 2.094395102393196 -3.141592653589793  0 2.094395102393196 -3.141592653589793  0.5235987755982987 2.094395102393196 -3.141592653589793  1.047197551196597 2.094395102393196 -3.141592653589793  1.570796326794897 2.094395102393196 -3.141592653589793  2.094395102393196 2.094395102393196 -3.141592653589793  2.617993877991494 2.094395102393196 -3.141592653589793  3.141592653589793 2.094395102393196 -3.141592653589793  -3.141592653589793 2.617993877991494 -3.141592653589793  -2.617993877991494 2.617993877991494 -3.141592653589793  -2.094395102393196 2.617993877991494 -3.141592653589793  -1.570796326794897 2.617993877991494 -3.141592653589793  -1.047197551196598 2.617993877991494 -3.141592653589793  -0.5235987755982987 2.617993877991494 -3.141592653589793  0 2.617993877991494 -3.141592653589793  0.5235987755982987 2.617993877991494 -3.141592653589793  1.047197551196597 2.617993877991494 -3.141592653589793  1.570796326794897 2.617993877991494 -3.141592653589793  2.094395102393196 2.617993877991494 -3.141592653589793  2.617993877991494 2.617993877991494 -3.141592653589793  3.141592653589793 2.617993877991494 -3.141592653589793  -3.141592653589793 3.141592653589793 -3.141592653589793  -2.617993877991494 3.141592653589793 -3.141592653589793  -2.094395102393196 3.141592653589793 -3.141592653589793  -1.570796326794897 3.141592653589793 -3.141592653589793  -1.047197551196598 3.141592653589793 -3.141592653589793  -0.5235987755982987 3.141592653589793 -3.141592653589793  0 3.141592653589793 -3.141592653589793  0.5235987755982987 3.141592653589793 -3.141592653589793  1.047197551196597 3.141592653589793 -3.141592653589793  1.570796326794897 3.141592653589793 -3.141592653589793  2.094395102393196 3.141592653589793 -3.141592653589793  2.617993877991494 3.141592653589793 -3.141592653589793  3.141592653589793 3.141592653589793 -3.141592653589793  -3.141592653589793 -3.141592653589793 -2.617993877991494  -2.617993877991494 -3.141592653589793 -2.617993877991494  -2.094395102393196 -3.141592653589793 -2.617993877991494  -1.570796326794897 -3.141592653589793 -2.617993877991494  -1.047197551196598 -3.141592653589793 -2.617993877991494  -0.5235987755982987 -3.141592653589793 -2.617993877991494  0 -3.141592653589793 -2.617993877991494  0.5235987755982987 -3.141592653589793 -2.617993877991494  1.047197551196597 -3.141592653589793 -2.617993877991494  1.570796326794897 
[...]
<PointData  Scalars="f_271484"> 
<DataArray  type="Float64"  Name="f_271484"  format="ascii">5.6812097620390523e-02  6.5271570800641721e-02  -3.1754894971007218e-02  1.0514229083414544e-02  -3.2870019304253005e-03  -3.5240928159689974e-02  -6.8320176768058891e-02  -3.5762585432466569e-02  -1.2419578594958397e-02  3.7979636699788130e-03  -3.9126965938088634e-02  5.2534559516835166e-02  5.6812097620390523e-02  4.7355770919920867e-02  -7.2110104783990936e-01  -1.0353666192633910e+00  -1.2218746876003770e+00  -1.0164044627559001e+00  -8.8592419376658160e-01  -5.7376561957505304e-02  7.0650543556670575e-01  1.1635130778839746e+00  1.1734583481184497e+00  9.5594927117822370e-01  8.7496046534321736e-01  4.7355770919920867e-02  8.5180430085413719e-03  -1.1662327125663103e+00  -1.3954389775342995e+00  -1.2025560679695775e+00  -1.6026275038419198e+00  -9.5193948012999052e-01  3.6927429556395781e-02  1.0234680544327579e+00  1.4023803290525065e+00  1.2604818553212351e+00  1.6100830672175634e+00  1.0102920035724992e+00  8.5180430085413719e-03  -1.5385757628322519e-02  -1.1634686034015691e+00  -1.2738297773035225e+00  -1.7622617099830888e+00  -1.2616231237046018e+00  -1.1698292607942422e+00  -1.2529829669090825e-02  1.2286103178237344e+00  1.2039446915440637e+00  1.7480081132249583e+00  1.2000054637052795e+00  1.2263642599492937e+00  -1.5385757628322519e-02  3.4619950931899561e-02  -9.4952763944013330e-01  -1.6145727359235726e+00  -1.2005448835915080e+00  -1.3963936859881085e+00  -1.1678704311125669e+00  1.2033567892119471e-02  1.0215971148415668e+00  1.6099483491235134e+00  1.2518622345857271e+00  1.3951014841591767e+00  1.0205933249630508e+00  3.4619950931899561e-02  -5.2329757779248920e-02  -8.9389496359873988e-01  -1.0086985496285397e+00  -1.2277315488226677e+00  -1.0216995717958277e+00  -7.0384999551273519e-01  4.3419463629391669e-02  8.8552274081097426e-01  9.5196700943018331e-01  1.1630601101722737e+00  1.1617122671806708e+00  7.0608477823144167e-01  -5.2329757779248920e-02  -4.1267809656129348e-02  -3.8455322957975907e-02  -1.2594207404061124e-02  1.7363109417557761e-02  -2.7380666866101546e-02  5.4367683870006976e-02  4.7232353153972312e-02  5.5891865787431196e-02  -3.6314528142704118e-02  1.1066466111608634e-02  -1.3984791692458899e-02  -5.4150324695973376e-02  -4.1267809656129348e-02  -6.2312008694476735e-02  7.0752832070016802e-01  1.1649839788545009e+00  1.1722476278541196e+00  9.6031425083117194e-01  8.8568281954545436e-01  3.6796379781062961e-02  -7.0415577613426694e-01  -1.0286291486983319e+00  -1.2164762507251785e+00  -1.0145312556599697e+00  -8.7403725731229709e-01  -6.2312008694476735e-02  3.1480087380425840e-02  1.0333324566440147e+00  1.3988626574688763e+00  1.2586733431235759e+00  1.6107872342671548e+00  1.0125811487602958e+00  7.5902879177639632e-03  -1.1696580399853995e+00  -1.3967333841174088e+00  -1.2074824334577774e+00  -1.6047611098413026e+00  -9.5238341874830224e-01  3.1480087380425840e-02  -1.3952781424593793e-02  1.2339985281909427e+00  1.2099431424871880e+00  1.7617043203308604e+00  1.2024342976678857e+00  1.2213163739606747e+00  -1.5551918748008806e-02  -1.1713074783331963e+00  -1.2647211242634597e+00  -1.7568468396718013e+00  -1.2593094538116671e+00  -1.1714140213598663e+00  -1.3952781424593793e-02  1.4484977969168027e-02  1.0150035855942108e+00  1.6101774104714837e+00  1.2551697905810431e+00  1.4022073528006671e+00  1.0180881604676053e+00  2.9283141901787876e-02  -9.5975274867877070e-01  -1.5896835587966092e+00  -1.2091053080037359e+00  -1.3936733394289196e+00  -1.1601898146469634e+00  1.4484977969168027e-02  3.7487848968087822e-02  8.8998036366486444e-01  9.5322024116985793e-01  1.1695286613748623e+00  1.1681264397829074e+00  7.1593260229723332e-01  -6.6635996655562149e-02  -8.7634043011157237e-01  -1.0126366163612472e+00  -1.2189113514363361e+00  -1.0239634627352014e+00  -7.0404751260251819e-01  3.7487848968087822e-02  5.6812097620390523e-02  6.5271570800641721e-02  -3.1754894971007218e-02  1.0514229083414544e-02  -3.2870019304253005e-03  -3.5240928159689974e-02  -6.8320176768058891e-02  -3.5762585432466569e-02  -1.2419578594958397e-02  3.7979636699788130e-03  -3.9126965938088634e-02  5.2534559516835166e-02  5.6812097620390523e-02  5.8384536318373433e-02  8.3949616182389265e-03  -4.6506684123675326e-02  1.3036450399951992e-03  -7.1867010658371519e-02  -5.5820970033082284e-02  -3.3900992861367274e-02  -7.5062252497002640e-03  1.7476910745790161e-02  -8.0784125610937844e-03  4.2671396731529102e-02  9.1355435293492160e-02  5.8384536318373433e-02  -1.0907062514299910e-02  -6.5448827837016044e-01  -9.0018997335239070e-01  -1.0017739387604678e+00  -9.8896211894449282e-01  -6.9553314036464087e-01  -2.4240734441677472e-02  6.5568622717347180e-01  9.4075148069247860e-01  9.7010868632978098e-01  9.2008736269706437e-01  7.1263708200779563e-01  -1.0907062514299910e-02  -2.3462014193929171e-02  -9.4531109362329269e-01  -1.1935881581242866e+00  -1.2963162521290834e+00  -1.4123924785004742e+00  -8.0165162635349807e-01  5.1204387512167264e-02  8.9437636883146809e-01  1.1863938998202839e+00  1.3448569841645452e+00  1.3842159321030725e+00  8.5242452113775424e-01  -2.3462014193929171e-02  1.0440441396108786e-02  -9.7094735895393691e-01  -1.3463900585365747e+00  -1.5791914988620015e+00  -1.2914955628599920e+00  -9.9909361228019999e-01  4.1621996708230214e-03  9.8978601209766437e-01  1.2973755694020019e+00  1.5779663569283386e+00  1.2160218352010801e+00  1.0376285455537848e+00  1.0440441396108786e-02  -4.3394922815325997e-02  -9.3478360877593059e-01  -1.3785852626250856e+00  -1.2113554145408225e+00  -1.3400892500738888e+00  -1.0376982251736990e+00  7.6606653859137397e-02  9.8445397914195387e-01  1.3974262772939878e+00  1.2806353955492105e+00  1.3285413597277307e+00  8.7934294558503301e-01  -4.3394922815325997e-02  -8.6654528300519187e-02  -7.1888376254105579e-01  -8.4832612155122733e-01  -1.0328440355666129e+00  -8.7827520616417387e-01  -5.1927084359953213e-01  5.9978490938844213e-02  6.9756528370394189e-01  8.1220309966416926e-01  1.0022876651317192e+00  1.0339240994741872e+00  5.2656088946045709e-01  -8.6654528300519187e-02  -5.1266082095000130e-02  -1.9830413001316197e-03  1.6811437049632592e-02  -9.4534302840081231e-03  4.5269705090462888e-02  8.4168628715121346e-02  3.4749175973966859e-02  1.9985728661677679e-02  -4.6305183469998373e-02  -3.8811319639428066e-03  -7.7096454964715885e-02  -5.5940411786686781e-02  -5.1266082095000130e-02  -1.1816730824312657e-02  6.4538356800726548e-01  9.3833521535727693e-01  9.7175478074815214e-01  9.3203815650386967e-01  7.2454057858826526e-01  1.1518257503562137e-02  -6.5660811468135716e-01  -8.8987945937581603e-01  -9.9036588622069011e-01  -9.8387677333963197e-01  -6.9969448740068008e-01  -1.1816730824312657e-02  4.7439212931484120e-02  9.0021739863848638e-01  1.1871813088678580e+00  1.3471231939758168e+00  1.3831756596333058e+00  8.4841686095334579e-01  -2.9373258570001306e-02  -9.3762409094531129e-01  -1.1928676849430637e+00  -1.2965273592726252e+00  -1.3956160940265532e+00  -8.0307943906336010e-01  4.7439212931484120e-02  2.2955873911961367e-03  9.9820792262175118e-01  1.2967654854764019e+00  1.5895915449471190e+00  1.2063339864255520e+00  1.0416970781951556e+00  2.3262569193674989e-03  -9.6954613030560755e-01  -1.3405753137742118e+00  -1.5826120193595181e+00  -1.2919219317829644e+00  -9.9877972714771757e-01  2.2955873911961367e-03  8.4664617780297324e-02  9.8691209634261567e-01  1.4014078746873821e+00  1.2866236865049450e+00  1.3365552376986869e+00  8.8237349587127356e-01  -5.2015412854324643e-02  -9.2656919272288030e-01  -1.3823772285207305e+00  -1.2194436753089186e+00  -1.3396773393044326e+00  -1.0451116573693429e+00  8.4664617780297324e-02  6.7164093334182759e-02  7.0904582020790086e-01  8.0215095632279554e-01  9.9933897878844657e-01  1.0405436671693866e+00  5.2940884633081098e-01  -7.6805518782481721e-02  -7.2750676291443805e-01  -8.3804370822348506e-01  -1.0211086291986973e+00  -8.7996652281280974e-01  -5.3165996954913219e-01  6.7164093334182759e-02  5.8384536318373433e-02  8.3949616182389265e-03  -4.6506684123675326e-02  1.3036450399951992e-03  -7.1867010658371519e-02  -5.5820970033082284e-02  -3.3900992861367274e-02  -7.5062252497002640e-03  1.7476910745790161e-02  -8.0784125610937844e-03  4.2671396731529102e-02  9.1355435293492160e-02  5.8384536318373433e-02  9.0674418428711677e-03  2.2922263635682259e-02  -2.5687206847162854e-02  -3.0567466282129994e-02  -5.5760383287675359e-02  -4.0952764072037837e-02  -1.6810751142278264e-02  -1.5719748020710373e-03  3.5861422259865799e-02  1.1067787318291901e-02  4.6663049580700715e-02  1.8550970200396702e-03  9.0674418428711677e-03  2.0408349469242981e-02  -3.5249515307292345e-01  -5.3939536959305057e-01  -6.2160088401932390e-01  -6.0867858061366265e-01  -3.2906925065410786e-01  -1.3560798215699520e-02  3.4099545456767943e-01  5.4351909839548296e-01  6.6584489180494244e-01  5.9102984856490226e-01  3.4312005847920191e-01  2.0408349469242981e-02  -2.4316692579546148e-02  -5.4988543703016091e-01  -7.9806656314509172e-01  -9.7808915618203041e-01  -8.5720684497362343e-01  -4.3715094591688008e-01  1.6288923261073968e-02  5.4168973354913263e-01  8.0278013401260029e-01  9.8417019205542577e-01  8.2399857288601341e-01  4.6932523685520977e-01  -2.4316692579546148e-02  -1.6664567125802592e-02  -6.5987552271783356e-01  -9.8779837671500970e-01  -1.0430827644937155e+00  -9.2323248828570503e-01  -5.3074177460065064e-01  3.3458183632418093e-02  6.2417981594073757e-01  9.7558540287047557e-01  1.0381458450504180e+00  9.2354949208237092e-01  5.6854862621533120e-01  -1.6664567125802592e-02  -5.8217849304763571e-02  -5.8448789680443525e-01  -8.2218391564160553e-01  -9.2193225293203029e-01  -8.3225734436561849e-01  -5.0885206388244231e-01  6.1976673735418444e-02  6.1663258201899029e-01  8.6327192574698519e-01  9.1687116041099681e-01  8.1989966470969533e-01  4.7362105247782404e-01  -5.8217849304763571e-02  -1.3699561128888867e-02  -3.4391943876293429e-01  -4.7862022605929888e-01  -5.6475585684093477e-01  -4.5948139428970580e-01  -1.9215436341843137e-01  4.1005946121196582e-02  3.1542825933640189e-01  4.3718716542321873e-01  5.2582873993982615e-01  5.1344438816577809e-01  2.0169661027565963e-01  -1.3699561128888867e-02  -2.5109597762309050e-02  -7.7583942196643493e-03  3.2124918939676998e-02  1.5338291265910575e-02  5.7291517682354021e-02  1.4878098205151647e-02  2.3167805568595077e-02  1.8920608253858856e-02  -3.1391326398201302e-02  -3.3006496353686916e-02  -5.3574930493381967e-02  -4.3519420055699615e-02  -2.5109597762309050e-02  -1.6853727063525541e-02  3.3611886937223823e-01  5.3759918373247939e-01  6.7100364396681356e-01  5.9070346978688937e-01  3.5080307464555266e-01  1.6549039449725297e-02  -3.4713617715070871e-01  -5.3560141184746568e-01  -6.1267039161510950e-01  -6.1279939138994266e-01  -3.1955034655161735e-01  -1.6853727063525541e-02  2.6969658950467337e-02  5.2437720227225049e-01  8.0334396703338107e-01  9.8284309795042823e-01  8.1975501283457775e-01  4.6756719467522906e-01  -3.6596699511494003e-02  -5.5015346515056629e-01  -8.0077430199150068e-01  -9.6602055866684877e-01  -8.5594201570713124e-01  -4.3226773228210685e-01  2.6969658950467337e-02  3.3320910289534815e-02  6.2562444992392996e-01  9.7201659044326560e-01  1.0508172793243020e+00  9.1429004923404478e-01  5.6534472738152941e-01  -2.5658164470655134e-02  -6.6591840708263483e-01  -9.7927483013600070e-01  -1.0447364777359978e+00  -9.1786341116559522e-01  -5.3566774278597129e-01  3.3320910289534815e-02  5.6381346991017441e-02  6.1480034910436721e-01  8.6226847239538473e-01  9.2334739880192152e-01  8.3674499159139804e-01  4.6094565615806010e-01  -5.9237384084321019e-02  -5.8507644236781331e-01  -8.2440621543962922e-01  -9.1795477308752793e-01  -8.3531117663867771e-01  -5.1420055995309155e-01  5.6381346991017441e-02  4.8677730173988472e-02  3.0943562154450366e-01  4.3311890918713292e-01  5.2938251721631613e-01  5.1896901215315683e-01  2.0074603885367442e-01  -1.0189385560921332e-02  -3.3829283598506082e-01  -4.7137793212635554e-01  -5.7021781078489164e-01  -4.6211115229568467e-01  -2.0548497474673405e-01  4.8677730173988472e-02  9.0674418428711677e-03  2.2922263635682259e-02  -2.5687206847162854e-02  -3.0567466282129994e-02  -5.5760383287675359e-02  -4.0952764072037837e-02  -1.6810751142278264e-02  -1.5719748020710373e-03  3.5861422259865799e-02  1.1067787318291901e-02  4.6663049580700715e-02  1.8550970200396702e-03  9.0674418428711677e-03  7.0801494736909970e-03  -1.0909666199175674e-02  -1.0931154532255957e-02  2.2663554473679503e-03  -1.1423935152046000e-02  -1.1874884222893510e-02  5.4806548249743841e-04  -4.6768042408460711e-03  1.4114641105710502e-02  3.0623317329893308e-02  1.6280761298622232e-02  9.8415771415899626e-03  7.0801494736909970e-03  -5.1382139652939047e-03  -5.4189066957391466e-02  -5.2391301918162436e-02  -5.9859150689496272e-02  -5.4591606087474688e-02  -3.6134539563806539e-03  1.7183052899278194e-02  5.7490554535990432e-02  8.9607800388063694e-02  4.4334839675990605e-02  2.8131268793877228e-03  1.0941500186347078e-02  -5.1382139652939047e-03  -2.2615399939333397e-02  -8.3215890771198675e-02  -8.7087226227544084e-02  -6.8387152926438974e-02  -2.5016075140058474e-04  4.1054632938172297e-02  1.7686223585345717e-02  2.6601986716256881e-02  8.8579412324835613e-02  6.5177135325043448e-02  1.9812024461488177e-04  1.3884810677060326e-03  -2.2615399939333397e-02  -2.3650036352155932e-02  -5.2490178853723819e-02  -5.8579021927642527e-02  -8.0263788271914480e-03  6.7268891948447804e-02  5.5779881175730420e-02  -1.1982791868631061e-02  4.9117378860022654e-02  6.9323460350528554e-02  4.6376628616018939e-03  -5.4601305348831161e-02  -4.2582477613818871e-02  -2.3650036352155932e-02  -1.9098939548837370e-02  4.9446417776905114e-03  -3.7333435095792148e-03  5.6166304859522176e-02  1.0596687639808575e-01  4.1506092776076649e-02  1.5561749663924618e-02  5.6538365796753635e-02  -4.5500656412206936e-03  -5.9774462764475331e-02  -9.1362823165858836e-02  -8.2816764469532234e-02  -1.9098939548837370e-02  -1.2617426338664972e-02  -3.3845480534706990e-03  3.0329388032980294e-03  4.9289307061070584e-02  8.4832720478262222e-02  5.2063875879387239e-02  1.8742912657453283e-02  5.7739526623604917e-03  -5.1869563338039458e-02  -5.1613435294103678e-02  -5.1881923080052780e-02  -5.2065581063748347e-02  -1.2617426338664972e-02  2.3554374045646015e-04  1.1406121678018142e-02  2.2384405345139961e-02  2.2045892786867170e-02  2.3762636551617311e-02  4.7654328769204165e-03  7.1178992020449351e-03  -5.8005817606076975e-03  -1.4319203192580553e-02  1.3065417444924208e-02  -7.4535076351869758e-03  -2.8400689542871043e-02  2.3554374045646015e-04  1.2301048625700448e-02  4.8869895002668140e-02  8.1911440648410674e-02  5.0367917088178712e-02  6.4583999143767471e-03  2.6590753269256323e-03  2.6991667405833978e-04  -5.1687438602724664e-02  -4.1400811264392504e-02  -3.9020427800647316e-02  -5.6845901959863769e-02  -1.7910055038178976e-03  1.2301048625700448e-02  1.4514956351607499e-03  4.6223778991620709e-02  8.8019407436885799e-02  5.2656093791601077e-02  -9.6334562251903580e-03  -5.6036493106375283e-03  -2.5773401999667805e-02  -8.4820463443887259e-02  -8.3213979636495489e-02  -6.7789353576492364e-02  3.5993202158055497e-03  5.2068085894830737e-02  1.4514956351607499e-03  -1.6879966952884979e-02  5.2390441660103391e-02  6.6693019612827545e-02  -3.3133019085753975e-03  -5.9788623092402876e-02  -5.8888512603475003e-02  -2.4612363320403664e-02  -4.6377711799039691e-02  -5.3805009842702839e-02  -2.1716795935769516e-03  8.1087034279622258e-02  4.8344055320530495e-02  -1.6879966952884979e-02  1.7233662967218569e-02  5.9707911560939145e-02  6.1956255997772268e-03  -6.2747935478550620e-02  -8.7025615393339917e-02  -8.5343131092949998e-02  -3.5614499828989017e-02  9.9533122279351488e-04  -1.8875823708383740e-03  5.0346690428136526e-02  8.2230670501498196e-02  4.0126005512392877e-02  1.7233662967218569e-02  1.8046018267780871e-02  -3.5598691572868240e-03  -4.9541334885550299e-02  -4.3961795820918338e-02  -4.4630449161432467e-02  -5.5543383189979270e-02  -2.5904591346149483e-03  -9.2846093300943115e-05  1.1261105568039973e-02  3.1608725115955666e-02  8.8007404819150176e-02  4.9498441167129391e-02  1.8046018267780871e-02  7.0801494736909970e-03  -1.0909666199175674e-02  -1.0931154532255957e-02  2.2663554473679503e-03  -1.1423935152046000e-02  -1.1874884222893510e-02  5.4806548249743841e-04  -4.6768042408460711e-03  1.4114641105710502e-02  3.0623317329893308e-02  1.6280761298622232e-02  9.8415771415899626e-03  7.0801494736909970e-03  -1.9372929399213767e-02  -3.9513658576033790e-02  -6.2085136906349855e-02  -3.3481739813849033e-02  -3.9678713709218764e-02  1.8625924341835562e-02  1.3129607616330865e-02  2.5270418111929791e-02  6.5084757172405291e-02  1.5304846329920404e-02  2.9177150911238871e-02  -1.0135542347623476e-03  -1.9372929399213767e-02  -1.3189065468136751e-02  1.9955699141295694e-01  5.2214996336477559e-01  5.2988693898263106e-01  4.4015644913317031e-01  3.1087150031767846e-01  4.3351771423137710e-02  -2.0728964263348376e-01  -4.7781465608853696e-01  -5.8023984963438779e-01  -4.7677227636656422e-01  -3.4062051744945088e-01  -1.3189065468136751e-02  -5.4727950490191829e-02  4.5698214503809292e-01  8.4000099412072848e-01  9.2363898162986391e-01  8.5573441947626294e-01  6.1594678716008289e-01  5.8036846007741366e-02  -5.2117615487085600e-01  -8.3310873425726328e-01  -9.1907613101075969e-01  -8.1572582162685692e-01  -5.7926416863115304e-01  -5.4727950490191829e-02  -1.7072306623356702e-02  5.7407359574156192e-01  9.1456826929790880e-01  1.0511764063903832e+00  9.7113160405953625e-01  6.2241301045080677e-01  1.5557563702961385e-02  -5.3575837012535887e-01  -9.1438724456991627e-01  -1.0397926322555895e+00  -9.8497984393209681e-01  -6.5404797946281845e-01  -1.7072306623356702e-02  -1.6970073004621465e-02  4.7173585596495077e-01  8.2601501943446543e-01  9.9342457062776723e-01  7.9405343275730966e-01  5.2357253027351525e-01  2.2536912005051077e-02  -4.3574600735600422e-01  -8.7166177535374689e-01  -9.7217037370191917e-01  -8.0030922228458146e-01  -5.4540445643602098e-01  -1.6970073004621465e-02  1.4073268818259203e-02  3.4052238748789265e-01  5.8389683198034559e-01  6.5391594095900885e-01  5.4260115467657910e-01  3.3190441999682030e-01  6.8665411554513246e-04  -3.1810674786472093e-01  -6.2351853012852221e-01  -6.2761400277302082e-01  -5.2537865866461808e-01  -3.5322682091449970e-01  1.4073268818259203e-02  1.5318959988036694e-02  2.4557095996767184e-02  4.9521859529389881e-02  1.2931248767446916e-02  3.9610748614653128e-02  -9.7149676356036198e-03  -8.2448318008233080e-03  -4.2994131879171400e-02  -3.2745707652349562e-02  -1.1256569808623539e-02  -1.1869448357089836e-02  5.9185112909666340e-03  1.5318959988036694e-02  4.3797944005696414e-02  -2.0238831497560505e-01  -4.6941980698016744e-01  -5.7521505405595963e-01  -4.7498077674193406e-01  -3.4369373439309026e-01  -2.2744791516888727e-02  2.2273046747631359e-01  5.2548712805952102e-01  5.4415270280154648e-01  4.3186112252571662e-01  3.0089876987660369e-01  4.3797944005696414e-02  5.1330626538593924e-02  -5.1465841372574250e-01  -8.3298362205503607e-01  -9.1821690656587907e-01  -8.2979905421884725e-01  -5.8667467614877788e-01  -5.6119263588532801e-02  4.7955563136491480e-01  8.3900337374929579e-01  9.3063800680401221e-01  8.5596170300010688e-01  6.1522830932594585e-01  5.1330626538593924e-02  2.1062653832052341e-02  -5.2946430409652911e-01  -9.3434475305533116e-01  -1.0387734711245562e+00  -9.9626662861982906e-01  -6.6912541521559388e-01  -1.6344594399762491e-02  5.7590056191045857e-01  9.1487403107151055e-01  1.0591324905633230e+00  9.8327502322627269e-01  6.2632015502165106e-01  2.1062653832052341e-02  1.1731986459479678e-02  -4.3855480753062931e-01  -8.5220723426518452e-01  -9.6319802959323775e-01  -7.9650436344255737e-01  -5.5481821135275322e-01  -3.00765230719036