<?xml version="1.0"?>
<VTKFile type="UnstructuredGrid"  version="0.1"  >
<UnstructuredGrid>
<Piece  NumberOfPoints="2197" NumberOfCells="10368">
<Points>
<DataArray  type="Float64"  NumberOfComponents="3"  format="ascii">-3.141592653589793 -3.141592653589793 -3.141592653589793  -2.617993877991494 -3.141592653589793 -3.141592653589793  -2.094395102393196 -3.141592653589793 -3.141592653589793  -1.570796326794897 -3.141592653589793 -3.141592653589793  -1.047197551196598 -3.141592653589793 -3.141592653589793  -0.5235987755982987 -3.141592653589793 -3.141592653589793  0 -3.141592653589793 -3.141592653589793  0.5235987755982987 -3.141592653589793 -3.141592653589793  1.047197551196597 -3.141592653589793 -3.141592653589793  1.570796326794897 -3.141592653589793 -3.141592653589793  2.094395102393196 -3.141592653589793 -3.141592653589793  2.617993877991494 -3.141592653589793 -3.141592653589793  3.141592653589793 -3.141592653589793 -3.141592653589793  -3.141592653589793 -2.617993877991494 -3.141592653589793  -2.617993877991494 -2.617993877991494 -3.141592653589793  -2.094395102393196 -2.617993877991494 -3.141592653589793  -1.570796326794897 -2.617993877991494 -3.141592653589793  -1.047197551196598 -2.617993877991494 -3.141592653589793  -0.5235987755982987 -2.617993877991494 -3.141592653589793  0 -2.617993877991494 -3.141592653589793  0.5235987755982987 -2.617993877991494 -3.141592653589793  1.047197551196597 -2.617993877991494 -3.141592653589793  1.570796326794897 -2.617993877991494 -3.141592653589793  2.094395102393196 -2.617993877991494 -3.141592653589793  2.617993877991494 -2.617993877991494 -3.141592653589793  3.141592653589793 -2.617993877991494 -3.141592653589793  -3.141592653589793 -2.094395102393196 -3.141592653589793  -2.617993877991494 -2.094395102393196 -3.141592653589793  -2.094395102393196 -2.094395102393196 -3.141592653589793  -1.570796326794897 -2.094395102393196 -3.141592653589793  -1.047197551196598 -2.094395102393196 -3.141592653589793  -0.5235987755982987 -2.094395102393196 -3.141592653589793  0 -2.094395102393196 -3.141592653589793  0.5235987755982987 -2.094395102393196 -3.141592653589793  1.047197551196597 -2.094395102393196 -3.141592653589793  1.570796326794897 -2.094395102393196 -3.141592653589793  2.094395102393196 -2.094395102393196 -3.141592653589793  2.617993877991494 -2.094395102393196 -3.141592653589793  3.141592653589793 -2.094395102393196 -3.141592653589793  -3.141592653589793 -1.570796326794897 -3.141592653589793  -2.617993877991494 -1.570796326794897 -3.141592653589793  -2.094395102393196 -1.570796326794897 -3.141592653589793  -1.570796326794897 -1.570796326794897 -3.141592653589793  -1.047197551196598 -1.570796326794897 -3.141592653589793  -0.5235987755982987 -1.570796326794897 -3.141592653589793  0 -1.570796326794897 -3.141592653589793  0.5235987755982987 -1.570796326794897 -3.141592653589793  1.047197551196597 -1.570796326794897 -3.141592653589793  1.570796326794897 -1.570796326794897 -3.141592653589793  2.094395102393196 -1.570796326794897 -3.141592653589793  2.617993877991494 -1.570796326794897 -3.141592653589793  3.141592653589793 -1.570796326794897 -3.141592653589793  -3.141592653589793 -1.047197551196598 -3.141592653589793  -2.617993877991494 -1.047197551196598 -3.141592653589793  -2.094395102393196 -1.047197551196598 -3.141592653589793  -1.570796326794897 -1.047197551196598 -3.141592653589793  -1.047197551196598 -1.047197551196598 -3.141592653589793  -0.5235987755982987 -1.047197551196598 -3.141592653589793  0 -1.047197551196598 -3.141592653589793  0.5235987755982987 -1.047197551196598 -3.141592653589793  1.047197551196597 -1.047197551196598 -3.141592653589793  1.570796326794897 -1.047197551196598 -3.141592653589793  2.094395102393196 -1.047197551196598 -3.141592653589793  2.617993877991494 -1.047197551196598 -3.141592653589793  3.141592653589793 -1.047197551196598 -3.141592653589793  -3.141592653589793 -0.5235987755982987 -3.141592653589793  -2.617993877991494 -0.5235987755982987 -3.141592653589793  -2.094395102393196 -0.5235987755982987 -3.141592653589793  -1.570796326794897 -0.5235987755982987 -3.141592653589793  -1.047197551196598 -0.5235987755982987 -3.141592653589793  -0.5235987755982987 -0.5235987755982987 -3.141592653589793  0 -0.5235987755982987 -3.141592653589793  0.5235987755982987 -0.5235987755982987 -3.141592653589793  1.047197551196597 -0.5235987755982987 -3.141592653589793  1.570796326794897 -0.5235987755982987 -3.141592653589793  2.094395102393196 -0.5235987755982987 -3.141592653589793  2.617993877991494 -0.5235987755982987 -3.141592653589793  3.141592653589793 -0.5235987755982987 -3.141592653589793  -3.141592653589793 0 -3.141592653589793  -2.617993877991494 0 -3.141592653589793  -2.094395102393196 0 -3.141592653589793  -1.570796326794897 0 -3.141592653589793  -1.047197551196598 0 -3.141592653589793  -0.5235987755982987 0 -3.141592653589793  0 0 -3.141592653589793  0.5235987755982987 0 -3.141592653589793  1.047197551196597 0 -3.141592653589793  1.570796326794897 0 -3.141592653589793  2.094395102393196 0 -3.141592653589793  2.617993877991494 0 -3.141592653589793  3.141592653589793 0 -3.141592653589793  -3.141592653589793 0.5235987755982987 -3.141592653589793  -2.617993877991494 0.5235987755982987 -3.141592653589793  -2.094395102393196 0.5235987755982987 -3.141592653589793  -1.570796326794897 0.5235987755982987 -3.141592653589793  -1.047197551196598 0.5235987755982987 -3.141592653589793  -0.5235987755982987 0.5235987755982987 -3.141592653589793  0 0.5235987755982987 -3.141592653589793  0.5235987755982987 0.5235987755982987 -3.141592653589793  1.047197551196597 0.5235987755982987 -3.141592653589793  1.570796326794897 0.5235987755982987 -3.141592653589793  2.094395102393196 0.5235987755982987 -3.141592653589793  2.617993877991494 0.5235987755982987 -3.141592653589793  3.141592653589793 0.5235987755982987 -3.141592653589793  -3.141592653589793 1.047197551196597 -3.141592653589793  -2.617993877991494 1.047197551196597 -3.141592653589793  -2.094395102393196 1.047197551196597 -3.141592653589793  -1.570796326794897 1.047197551196597 -3.141592653589793  -1.047197551196598 1.047197551196597 -3.141592653589793  -0.5235987755982987 1.047197551196597 -3.141592653589793  0 1.047197551196597 -3.141592653589793  0.5235987755982987 1.047197551196597 -3.141592653589793  1.047197551196597 1.047197551196597 -3.141592653589793  1.570796326794897 1.047197551196597 -3.141592653589793  2.094395102393196 1.047197551196597 -3.141592653589793  2.617993877991494 1.047197551196597 -3.141592653589793  3.141592653589793 1.047197551196597 -3.141592653589793  -3.141592653589793 1.570796326794897 -3.141592653589793  -2.617993877991494 1.570796326794897 -3.141592653589793  -2.094395102393196 1.570796326794897 -3.141592653589793  -1.570796326794897 1.570796326794897 -3.141592653589793  -1.047197551196598 1.570796326794897 -3.141592653589793  -0.5235987755982987 1.570796326794897 -3.141592653589793  0 1.570796326794897 -3.141592653589793  0.5235987755982987 1.570796326794897 -3.141592653589793  1.047197551196597 1.570796326794897 -3.141592653589793  1.570796326794897 1.570796326794897 -3.141592653589793  2.094395102393196 1.570796326794897 -3.141592653589793  2.617993877991494 1.570796326794897 -3.141592653589793  3.141592653589793 1.570796326794897 -3.141592653589793  -3.141592653589793 2.094395102393196 -3.141592653589793  -2.617993877991494 2.094395102393196 -3.141592653589793  -2.094395102393196 2.094395102393196 -3.141592653589793  -1.570796326794897 2.094395102393196 -3.141592653589793  -1.047197551196598 2.094395102393196 -3.141592653589793  -0.5235987755982987 2.094395102393196 -3.141592653589793  0 2.094395102393196 -3.141592653589793  0.5235987755982987 2.094395102393196 -3.141592653589793  1.047197551196597 2.094395102393196 -3.141592653589793  1.570796326794897 2.094395102393196 -3.141592653589793  2.094395102393196 2.094395102393196 -3.141592653589793  2.617993877991494 2.094395102393196 -3.141592653589793  3.141592653589793 2.094395102393196 -3.141592653589793  -3.141592653589793 2.617993877991494 -3.141592653589793  -2.617993877991494 2.617993877991494 -3.141592653589793  -2.094395102393196 2.617993877991494 -3.141592653589793  -1.570796326794897 2.617993877991494 -3.141592653589793  -1.047197551196598 2.617993877991494 -3.141592653589793  -0.5235987755982987 2.617993877991494 -3.141592653589793  0 2.617993877991494 -3.141592653589793  0.5235987755982987 2.617993877991494 -3.141592653589793  1.047197551196597 2.617993877991494 -3.141592653589793  1.570796326794897 2.617993877991494 -3.141592653589793  2.094395102393196 2.617993877991494 -3.141592653589793  2.617993877991494 2.617993877991494 -3.141592653589793  3.141592653589793 2.617993877991494 -3.141592653589793  -3.141592653589793 3.141592653589793 -3.141592653589793  -2.617993877991494 3.141592653589793 -3.141592653589793  -2.094395102393196 3.141592653589793 -3.141592653589793  -1.570796326794897 3.141592653589793 -3.141592653589793  -1.047197551196598 3.141592653589793 -3.141592653589793  -0.5235987755982987 3.141592653589793 -3.141592653589793  0 3.141592653589793 -3.141592653589793  0.5235987755982987 3.141592653589793 -3.141592653589793  1.047197551196597 3.141592653589793 -3.141592653589793  1.570796326794897 3.141592653589793 -3.141592653589793  2.094395102393196 3.141592653589793 -3.141592653589793  2.617993877991494 3.141592653589793 -3.141592653589793  3.141592653589793 3.141592653589793 -3.141592653589793  -3.141592653589793 -3.141592653589793 -2.617993877991494  -2.617993877991494 -3.141592653589793 -2.617993877991494  -2.094395102393196 -3.141592653589793 -2.617993877991494  -1.570796326794897 -3.141592653589793 -2.617993877991494  -1.047197551196598 -3.141592653589793 -2.617993877991494  -0.5235987755982987 -3.141592653589793 -2.617993877991494  0 -3.141592653589793 -2.617993877991494  0.5235987755982987 -3.141592653589793 -2.617993877991494  1.047197551196597 -3.141592653589793 -2.617993877991494  1.570796326794897 
[...]
<PointData  Scalars="f_113600"> 
<DataArray  type="Float64"  Name="f_113600"  format="ascii">6.2006099999616433e-02  4.7744758430487914e-02  1.6277996066371640e-02  -6.8310531650150885e-03  -5.2272026405566947e-03  -4.3081317360047382e-02  -6.2356072797256815e-02  -3.9363158869017874e-02  -1.8420849075623153e-02  -5.4274887459338063e-03  7.5795206200631147e-03  4.3060691519243369e-02  6.2006099999616433e-02  4.8095770523789085e-02  -5.5455862880375517e-01  -9.3452748501714433e-01  -1.0573903425412352e+00  -9.9264686184452944e-01  -6.2953772891791904e-01  -4.6571803481237621e-02  5.5490525540683822e-01  9.6069545693847436e-01  1.0613303951280204e+00  9.5833564649096192e-01  6.2062364637100820e-01  4.8095770523789085e-02  1.0865137881964892e-02  -9.6538335338187509e-01  -1.5412926382904168e+00  -1.7611727609245909e+00  -1.6050815511389112e+00  -9.5635951999840141e-01  -9.3451768451840514e-03  9.2723572093978812e-01  1.5441058876138389e+00  1.7607505831177859e+00  1.6116612374336650e+00  9.9201432514726384e-01  1.0865137881964892e-02  1.1156784340252859e-03  -1.0525908762043921e+00  -1.7682233469667099e+00  -2.0292465227198102e+00  -1.7599466808153583e+00  -1.0587967455292646e+00  3.0198967900084243e-03  1.0595274214707595e+00  1.7585580245019226e+00  2.0201858096832117e+00  1.7551583412437839e+00  1.0580375893703087e+00  1.1156784340252859e-03  -8.2409202059097412e-03  -9.5884100153484009e-01  -1.6105593008718233e+00  -1.7577958504050937e+00  -1.5445993846474744e+00  -9.6421210801418500e-01  1.1765598332923262e-02  9.9478154410193287e-01  1.6148749263571065e+00  1.7532252178306968e+00  1.5420054575178812e+00  9.2581744528459142e-01  -8.2409202059097412e-03  -4.3977750243183858e-02  -6.3093868592941582e-01  -9.8939432825205831e-01  -1.0609815522645356e+00  -9.2389437668225938e-01  -5.5236410026931082e-01  4.5771123326025454e-02  6.2805828123928564e-01  9.5544810953355341e-01  1.0592107514124927e+00  9.5976178549746005e-01  5.5384072544215956e-01  -4.3977750243183858e-02  -5.4487327611249768e-02  -4.3267337149332653e-02  -1.1740125006434676e-02  -3.3320034651671834e-04  1.3583515706223039e-02  4.2172932837258460e-02  5.7658946635799575e-02  4.2227526722643217e-02  1.3976859417862159e-02  -5.2004021167584135e-03  -1.1171133593561170e-02  -4.5303452326932891e-02  -5.4487327611249768e-02  -4.7629862180903176e-02  5.5404670086393515e-01  9.5962417928220023e-01  1.0634381542690918e+00  9.5839447032822800e-01  6.2769733908127656e-01  4.0815277207021536e-02  -5.5333935727126571e-01  -9.2817307193756404e-01  -1.0605544623770100e+00  -9.8719698369429465e-01  -6.2616580173732805e-01  -4.7629862180903176e-02  -1.2368141900074393e-02  9.3018303325058749e-01  1.5451093791866286e+00  1.7578638814389362e+00  1.6132548884160189e+00  9.8850975828089183e-01  1.3468305564387013e-02  -9.6500056160907288e-01  -1.5419337133434539e+00  -1.7620999916487805e+00  -1.6059443032007641e+00  -9.5525259304456867e-01  -1.2368141900074393e-02  1.2820641920800152e-03  1.0638652877727663e+00  1.7613492989550674e+00  2.0278798773301885e+00  1.7620454460580381e+00  1.0534291141567433e+00  1.2862834138401510e-03  -1.0602732624591711e+00  -1.7608693469417724e+00  -2.0249969205440603e+00  -1.7600732657422515e+00  -1.0611055833135135e+00  1.2820641920800152e-03  1.0882201325887911e-02  9.9040730108963126e-01  1.6137982683709509e+00  1.7545317030372911e+00  1.5416482376856662e+00  9.2806322437376065e-01  -1.3941457529618890e-02  -9.5994008202279069e-01  -1.5975453312778924e+00  -1.7600297032985281e+00  -1.5404930704725859e+00  -9.5736734002969193e-01  1.0882201325887911e-02  3.8882383278230362e-02  6.2942018608160688e-01  9.5851488122203266e-01  1.0577340434394420e+00  9.6415163815812088e-01  5.5981856419733034e-01  -4.9590879872314808e-02  -6.2464307216394344e-01  -9.8999082527592652e-01  -1.0607758139986976e+00  -9.2758163391107828e-01  -5.5290768096524734e-01  3.8882383278230362e-02  6.2006099999616433e-02  4.7744758430487914e-02  1.6277996066371640e-02  -6.8310531650150885e-03  -5.2272026405566947e-03  -4.3081317360047382e-02  -6.2356072797256815e-02  -3.9363158869017874e-02  -1.8420849075623153e-02  -5.4274887459338063e-03  7.5795206200631147e-03  4.3060691519243369e-02  6.2006099999616433e-02  5.3444799421427207e-02  2.1668687170228875e-02  -8.8855081466642002e-03  -1.8987138144006661e-02  -3.2370603570130468e-02  -5.7172443053883686e-02  -4.4196196167643025e-02  -2.3899062439855383e-02  1.2150561506475192e-02  2.0832960585246134e-02  4.0971726294960820e-02  5.8927281012266124e-02  5.3444799421427207e-02  1.5870546407212908e-02  -4.9389422672567751e-01  -8.2113312936179095e-01  -9.5102094468049125e-01  -8.7451375331511050e-01  -5.2549912835513501e-01  -2.8926429124437734e-02  4.9382651128205579e-01  8.2668725080799899e-01  9.4293763948553788e-01  8.5245459231826148e-01  5.3080319542048016e-01  1.5870546407212908e-02  -1.0063353889367984e-02  -8.2998899524367231e-01  -1.3656885725739820e+00  -1.5757346642431325e+00  -1.3965298921315970e+00  -8.0768000332003065e-01  1.1245661866801315e-02  8.1720272769110769e-01  1.3638880833489782e+00  1.5671758910491720e+00  1.4007044922013496e+00  8.3539302230892909e-01  -1.0063353889367984e-02  -2.1944094064277327e-02  -9.4456830082734566e-01  -1.5661615000355793e+00  -1.7772259417876906e+00  -1.5462171935323112e+00  -9.1000843523874264e-01  2.2920421086905958e-02  9.4753093350587880e-01  1.5767094083058617e+00  1.7786354084707416e+00  1.5302504312439440e+00  9.0826982591777328e-01  -2.1944094064277327e-02  -4.0633937655359074e-02  -8.5856056756140819e-01  -1.4010368722487727e+00  -1.5295325087954403e+00  -1.3481711634106213e+00  -8.1375416439245440e-01  3.6687044325983471e-02  8.7159373529816353e-01  1.3908495528014218e+00  1.5355879269365773e+00  1.3412926480040992e+00  7.8962323416703784e-01  -4.0633937655359074e-02  -5.6000180591656075e-02  -5.3285526761377555e-01  -8.3112373978542242e-01  -9.0974134347518032e-01  -7.8712935464393707e-01  -4.4088378415583396e-01  5.7319858921331006e-02  5.2784527649918189e-01  8.0960482515596310e-01  9.1481874757942228e-01  8.1658040621964023e-01  4.3962783510658254e-01  -5.6000180591656075e-02  -5.1579199894801760e-02  -1.6800875532227148e-02  7.8715462576104782e-03  2.3683206033078559e-02  3.9778054232151909e-02  5.6677816201320723e-02  4.8798553006564292e-02  2.4503668437863790e-02  -8.1459985543320818e-03  -2.1457489414483832e-02  -3.6777525019837415e-02  -5.5615326513549862e-02  -5.1579199894801760e-02  -2.5846227389838234e-02  4.8809251511727142e-01  8.2882587184697998e-01  9.4254734658319894e-01  8.5959973012544000e-01  5.3218490079379288e-01  1.9814066287594165e-02  -4.9452398173180440e-01  -8.1679229703541312e-01  -9.4713506128466685e-01  -8.7305365460619688e-01  -5.2999135513414597e-01  -2.5846227389838234e-02  1.3765543897425099e-02  8.2077117754279139e-01  1.3610931266829989e+00  1.5707725664762691e+00  1.4010375100352075e+00  8.3512808128499971e-01  -1.5430208762297538e-02  -8.2575784353215131e-01  -1.3628022797876216e+00  -1.5770922705934654e+00  -1.3856430192682792e+00  -8.0709297147008552e-01  1.3765543897425099e-02  1.7590253001118942e-02  9.5288207959217308e-01  1.5750280175372346e+00  1.7821827311001361e+00  1.5238649039364736e+00  9.1109382786562387e-01  -2.5573036913135064e-02  -9.4583593681722056e-01  -1.5652360537722918e+00  -1.7782976885782120e+00  -1.5448330994719586e+00  -9.0988288100044323e-01  1.7590253001118942e-02  4.0563712529503061e-02  8.7134556810181363e-01  1.3946481810315539e+00  1.5382106054638927e+00  1.3470697425730971e+00  7.9186400458258255e-01  -4.4905584177375869e-02  -8.5506930477897491e-01  -1.3974936370852833e+00  -1.5351378525008561e+00  -1.3458770402622091e+00  -8.2087319222940724e-01  4.0563712529503061e-02  6.0714581967733279e-02  5.3652952631415829e-01  8.0140918934204575e-01  9.1305249323273974e-01  8.1659705811351968e-01  4.3925726234960666e-01  -4.9157737012161154e-02  -5.3597062808937812e-01  -8.2472735000192077e-01  -9.0528948349356453e-01  -7.9046157182426791e-01  -4.4288826448488317e-01  6.0714581967733279e-02  5.3444799421427207e-02  2.1668687170228875e-02  -8.8855081466642002e-03  -1.8987138144006661e-02  -3.2370603570130468e-02  -5.7172443053883686e-02  -4.4196196167643025e-02  -2.3899062439855383e-02  1.2150561506475192e-02  2.0832960585246134e-02  4.0971726294960820e-02  5.8927281012266124e-02  5.3444799421427207e-02  2.1219336177111730e-02  3.4221328653257750e-03  -1.9648025924550491e-02  -3.9525851590887590e-02  -4.7124105717006787e-02  -5.0008666531009750e-02  -2.4827507858095576e-02  3.4379764522319100e-03  2.6371037824531936e-02  3.5993353096356061e-02  4.5775642568801636e-02  3.4706387772301957e-02  2.1219336177111730e-02  5.9212942087671508e-03  -2.9922013186057639e-01  -5.0259830748651035e-01  -5.8547215372857531e-01  -5.0553989144390288e-01  -3.0371802888846922e-01  1.9129556369333806e-03  2.9227763653057987e-01  5.0310614542342258e-01  5.8641568320139503e-01  5.1334507872081703e-01  2.9648931878311247e-01  5.9212942087671508e-03  -2.1821437054075285e-02  -5.0576113739082218e-01  -8.3983654562810728e-01  -9.5264179210395461e-01  -8.1461773589098030e-01  -4.5474284617906818e-01  1.5983069536952586e-02  5.0874735992440034e-01  8.3772452179665113e-01  9.5017071007523168e-01  8.1450492064463698e-01  4.5516909942832501e-01  -2.1821437054075285e-02  -4.0007167050760649e-02  -5.8229285999043701e-01  -9.5143618523758866e-01  -1.0593737369357650e+00  -8.9993489451413966e-01  -5.1216005659052533e-01  3.8913606188227694e-02  5.8426778423125247e-01  9.5462174667814881e-01  1.0555730942070387e+00  9.0222345513003299e-01  5.0943103152961888e-01  -4.0007167050760649e-02  -4.9969636720002736e-02  -5.1254400334324324e-01  -8.1429987866772147e-01  -9.0195979636612278e-01  -7.6829934568407365e-01  -4.2196145349797892e-01  5.1679546291172926e-02  5.1035488513116800e-01  8.1596152588366622e-01  8.9836122056389012e-01  7.6416450061949681e-01  4.2576527859154223e-01  -4.9969636720002736e-02  -4.0694745012423900e-02  -2.9712741133539089e-01  -4.6082343806087711e-01  -5.0437404869692926e-01  -4.2166251173012137e-01  -2.1113285852470132e-01  4.9282025786443896e-02  2.9960810348420308e-01  4.5414146464388111e-01  5.1074195709968973e-01  4.2258030947403541e-01  2.1501085014498514e-01  -4.0694745012423900e-02  -2.7837734164827040e-02  1.4869927219307510e-03  2.3197026753141340e-02  4.0446399268214354e-02  4.8546156199419467e-02  4.2736685622188589e-02  2.6151309326792296e-02  -5.7532415327550448e-04  -2.2335956281127691e-02  -3.9825724400762916e-02  -4.8452997336810168e-02  -4.9216591024370406e-02  -2.7837734164827040e-02  -9.1046875388740522e-06  2.9151907096771584e-01  5.0061349951093603e-01  5.8768854932703773e-01  5.1535018591593318e-01  2.9939805207038578e-01  2.4973880189110348e-03  -2.9417284826653756e-01  -5.0589383480052397e-01  -5.7842215385764262e-01  -5.0851517820074366e-01  -2.9965568036635398e-01  -9.1046875388740522e-06  2.1552508978197285e-02  4.9769008556648631e-01  8.3997291703110277e-01  9.4886727115122937e-01  8.1154673205139283e-01  4.5411931810356815e-01  -2.4215284705777516e-02  -5.0700962722250120e-01  -8.3763881621755476e-01  -9.5058981545390975e-01  -8.1108095490733034e-01  -4.5327387673290770e-01  2.1552508978197285e-02  4.0925808254021062e-02  5.8226118110732916e-01  9.5231123090184688e-01  1.0615408286799783e+00  9.0008654115714815e-01  5.0680643414506121e-01  -4.5950588369344327e-02  -5.8609032794536631e-01  -9.4900263000024854e-01  -1.0588327275212137e+00  -8.9788768497370786e-01  -5.1429948173221285e-01  4.0925808254021062e-02  4.7323437973623518e-02  5.1107674993859276e-01  8.1349399596061744e-01  8.9944050486449079e-01  7.7367576321729459e-01  4.2120852756974547e-01  -5.0488141465533626e-02  -5.0905907324983735e-01  -8.1372738264503941e-01  -9.0077614713103749e-01  -7.6852582597482400e-01  -4.2383920733667912e-01  4.7323437973623518e-02  5.3540339626366874e-02  2.9344345375829051e-01  4.5643199094731512e-01  5.1291131262480716e-01  4.2140176802427054e-01  2.1591310657138829e-01  -3.6894065701704573e-02  -2.9584696751426082e-01  -4.5950539645970451e-01  -5.0550362111818803e-01  -4.2150711951938713e-01  -2.1893576746595683e-01  5.3540339626366874e-02  2.1219336177111730e-02  3.4221328653257750e-03  -1.9648025924550491e-02  -3.9525851590887590e-02  -4.7124105717006787e-02  -5.0008666531009750e-02  -2.4827507858095576e-02  3.4379764522319100e-03  2.6371037824531936e-02  3.5993353096356061e-02  4.5775642568801636e-02  3.4706387772301957e-02  2.1219336177111730e-02  3.7666142996308854e-03  -2.0637352183908646e-02  -3.8711422414387027e-02  -4.9326210836102065e-02  -4.0408317099719850e-02  -2.2289659861094643e-02  -2.6131800369075475e-04  1.7590653806410575e-02  3.7892751148425836e-02  5.1537315929545954e-02  3.6400076626094804e-02  2.5408896078543412e-02  3.7666142996308854e-03  -2.2031566090192824e-02  -4.4525967479175116e-02  -5.5814612546141472e-02  -4.7191164315578717e-02  -2.6327928401285859e-02  -1.5846887997270395e-03  2.3422734207667068e-02  4.6555664273929820e-02  5.5566910462377807e-02  3.9382690294683213e-02  2.1414859579564825e-02  5.0129345141636970e-03  -2.2031566090192824e-02  -4.1862196737238642e-02  -5.2934783208455349e-02  -4.8449843078599779e-02  -3.0825183675344044e-02  -6.6068832839028782e-04  2.0363347307897978e-02  4.2850443034726134e-02  4.4442143582441404e-02  5.0921345883783442e-02  3.2522234868118748e-02  -1.0343401029540801e-03  -1.7730475382032613e-02  -4.1862196737238642e-02  -4.8944726695465041e-02  -4.3396677097319619e-02  -3.0312993842465982e-02  -3.1281050191856188e-03  3.0017258167720228e-02  4.6559359177355479e-02  4.3723413080804532e-02  4.2186146962795525e-02  3.0971583946802429e-02  1.0680924794567517e-03  -2.8106278030657308e-02  -3.9917622169219874e-02  -4.8944726695465041e-02  -3.8469446726638733e-02  -1.7904960758173671e-02  -2.5097252234237838e-03  2.9198764766144442e-02  5.6862253078009031e-02  5.1194984247193098e-02  4.3003316512480065e-02  2.4978526078766841e-02  -9.6736672361709419e-04  -2.6143175052334228e-02  -5.0518410622008895e-02  -5.3432537426659987e-02  -3.8469446726638733e-02  -2.7276071734774306e-02  -1.6961198955972106e-03  2.1179131045263113e-02  4.2887017706146710e-02  5.4853662440105762e-02  4.3789638652546786e-02  2.4391165078341725e-02  3.7987877605959496e-03  -2.4745884291551837e-02  -4.3858457083703770e-02  -5.5490780432612200e-02  -4.3927502765979815e-02  -2.7276071734774306e-02  1.1498878215424092e-03  2.6423441813079165e-02  3.9788300500688871e-02  4.7586184005169833e-02  4.1661374608475965e-02  2.1969842043695450e-02  2.9565167171450206e-03  -1.9706751142653373e-02  -4.0258647078722572e-02  -4.5758504177327464e-02  -3.7504147174511254e-02  -2.9500837575315367e-02  1.1498878215424092e-03  2.0803325258174694e-02  4.2361061307100732e-02  5.1311295811990960e-02  4.5780439529609744e-02  2.1625488907680679e-02  1.7126450031510984e-03  -1.9282752691484169e-02  -4.3013924916206266e-02  -5.1991934717127611e-02  -3.7959812669010565e-02  -2.6505267861238392e-02  3.9894919327083657e-04  2.0803325258174694e-02  3.6748195910898590e-02  5.0587231926081229e-02  5.0826847147079850e-02  2.6854237213530724e-02  -4.9883655477339717e-03  -2.1660084833599085e-02  -4.3818899043681726e-02  -5.6040682798011721e-02  -4.7639473537037680e-02  -3.0367386217662901e-02  2.2305657826181976e-03  2.4494390199720002e-02  3.6748195910898590e-02  4.1340030706378497e-02  4.3680212856275151e-02  2.9691695400487508e-02  -1.2294779936947273e-03  -2.9871126580457954e-02  -4.8109450129751138e-02  -4.6616063221871555e-02  -4.3029728293535421e-02  -2.7127011694278245e-02  1.7401964370543100e-04  3.4556514649221055e-02  4.3422444324828995e-02  4.1340030706378497e-02  4.2836413515283556e-02  2.8747985147261415e-02  2.1625567126245847e-03  -2.7692378006763753e-02  -5.0089919459590349e-02  -5.4365843305416592e-02  -4.7293787396393554e-02  -1.7567555256543032e-02  -1.2233805138539280e-03  2.8775583641218731e-02  4.7635287750104109e-02  4.9714897010670202e-02  4.2836413515283556e-02  2.3985468444097550e-02  -1.9140220442561029e-03  -2.2955763376970237e-02  -4.0853304725798387e-02  -5.1210894018754283e-02  -4.4540707840129923e-02  -2.1837634382022516e-02  2.6265315419932573e-04  2.4633211758066664e-02  3.6082908799611957e-02  5.4508956258110752e-02  4.1688619850631964e-02  2.3985468444097550e-02  3.7666142996308854e-03  -2.0637352183908646e-02  -3.8711422414387027e-02  -4.9326210836102065e-02  -4.0408317099719850e-02  -2.2289659861094643e-02  -2.6131800369075475e-04  1.7590653806410575e-02  3.7892751148425836e-02  5.1537315929545954e-02  3.6400076626094804e-02  2.5408896078543412e-02  3.7666142996308854e-03  -2.5525007016282610e-02  -4.6284207221434212e-02  -5.2540494106377518e-02  -3.9893655883434305e-02  -2.6123265303404447e-02  8.9904081648674967e-04  2.0504176142239209e-02  4.5834723117755570e-02  5.0719787814412089e-02  4.4050892321577828e-02  2.2033608605377182e-02  5.5993630182505595e-03  -2.5525007016282610e-02  -4.0695043928594535e-02  2.1485403630647648e-01  4.2508697484545210e-01  5.1085476674694652e-01  4.5678784076989920e-01  2.9531903368204554e-01  5.2470957977259168e-02  -2.1848901023119971e-01  -4.2715358019594624e-01  -5.1335919848686951e-01  -4.5808723905697585e-01  -2.9676235767088621e-01  -4.0695043928594535e-02  -4.6519848037611840e-02  4.2051960335176825e-01  7.7135665944210163e-01  9.0065727095422510e-01  8.1425592197388841e-01  5.1129432708634770e-01  4.6351790818651074e-02  -4.2697268914041858e-01  -7.6816192354876622e-01  -9.0048594689338546e-01  -8.1161622172820425e-01  -5.1096914172549657e-01  -4.6519848037611840e-02  -4.1030637195195785e-02  5.0666281451585804e-01  8.9830802965527445e-01  1.0636168941189452e+00  9.5262579316581686e-01  5.7995042064650471e-01  3.2439615992152129e-02  -5.1362864277067455e-01  -8.9611931786247656e-01  -1.0581602852577290e+00  -9.4882940584936759e-01  -5.8074139327669727e-01  -4.1030637195195785e-02  -1.7712999640391063e-02  4.5598118516965980e-01  8.1661282903384913e-01  9.5476335341545093e-01  8.3412901925735572e-01  4.9813191508579135e-01  2.1561468638742459e-02  -4.5648883386844269e-01  -8.1578928634011427e-01  -9.5412367830718969e-01  -8.3689619187321551e-01  -5.0384064484796720e-01  -1.7712999640391063e-02  -5.7923140397411754e-04  2.9749470922560278e-01  5.1061299682029160e-01  5.8033119784134690e-01  5.0217687279069290e-01  2.9246842924292366e-01  4.3660503816437988e-03  -2.9878230246003407e-01  -5.1496793373272198e-01  -5.8387545199340396e-01  -5.0139908475331341e-01  -2.9813308990434673e-01  -5.7923140397411754e-04  2.5178032241140045e-02  4.5504544951475344e-02  4.5905744000180153e-02  3.9992221294824146e-02  2.6313179897051623e-02  2.0480983252629936e-03  -2.1080094644258272e-02  -4.5305989701561897e-02  -4.2260696255790271e-02  -2.8618482000638490e-02  -1.7344399024648818e-02  -3.2274610596733141e-03  2.5178032241140045e-02  5.1025784800395178e-02  -2.1704446499597482e-01  -4.2689796714579914e-01  -5.0587015391284440e-01  -4.6075315400862354e-01  -2.9848552799962469e-01  -4.2463285686467622e-02  2.1901199853612008e-01  4.2907781736001283e-01  5.1236027337045598e-01  4.5546723663236655e-01  2.9041023552666367e-01  5.1025784800395178e-02  4.5685244411078227e-02  -4.2301249491440734e-01  -7.6748656342944988e-01  -8.9999435762810909e-01  -8.1573882308230961e-01  -5.1131909061624481e-01  -5.1756195251140849e-02  4.3158366922255414e-01  7.6943335621080222e-01  9.0574130764290139e-01  8.1189469028848682e-01  5.1212711052416027e-01  4.5685244411078227e-02  3.2563582045784162e-02  -5.0921920181740532e-01  -9.0487883604390529e-01  -1.0583274073680484e+00  -9.5279585994152749e-01  -5.8643150710383507e-01  -4.0374821608024088e-02  5.0968041633854511e-01  9.0097964350369031e-01  1.0639758782540132e+00  9.6052340899154665e-01  5.8414805323997154e-01  3.2563582045784162e-02  1.5881392170886844e-02  -4.5835179280395838e-01  -8.1077328369794122e-01  -9.4996764929851263e-01  -8.3977176283373067e-01  -5.0708911039381555e-01  -2.45237908906249