<?xml version="1.0"?>
<VTKFile type="UnstructuredGrid"  version="0.1"  >
<UnstructuredGrid>
<Piece  NumberOfPoints="2197" NumberOfCells="10368">
<Points>
<DataArray  type="Float64"  NumberOfComponents="3"  format="ascii">-3.141592653589793 -3.141592653589793 -3.141592653589793  -2.617993877991494 -3.141592653589793 -3.141592653589793  -2.094395102393196 -3.141592653589793 -3.141592653589793  -1.570796326794897 -3.141592653589793 -3.141592653589793  -1.047197551196598 -3.141592653589793 -3.141592653589793  -0.5235987755982987 -3.141592653589793 -3.141592653589793  0 -3.141592653589793 -3.141592653589793  0.5235987755982987 -3.141592653589793 -3.141592653589793  1.047197551196597 -3.141592653589793 -3.141592653589793  1.570796326794897 -3.141592653589793 -3.141592653589793  2.094395102393196 -3.141592653589793 -3.141592653589793  2.617993877991494 -3.141592653589793 -3.141592653589793  3.141592653589793 -3.141592653589793 -3.141592653589793  -3.141592653589793 -2.617993877991494 -3.141592653589793  -2.617993877991494 -2.617993877991494 -3.141592653589793  -2.094395102393196 -2.617993877991494 -3.141592653589793  -1.570796326794897 -2.617993877991494 -3.141592653589793  -1.047197551196598 -2.617993877991494 -3.141592653589793  -0.5235987755982987 -2.617993877991494 -3.141592653589793  0 -2.617993877991494 -3.141592653589793  0.5235987755982987 -2.617993877991494 -3.141592653589793  1.047197551196597 -2.617993877991494 -3.141592653589793  1.570796326794897 -2.617993877991494 -3.141592653589793  2.094395102393196 -2.617993877991494 -3.141592653589793  2.617993877991494 -2.617993877991494 -3.141592653589793  3.141592653589793 -2.617993877991494 -3.141592653589793  -3.141592653589793 -2.094395102393196 -3.141592653589793  -2.617993877991494 -2.094395102393196 -3.141592653589793  -2.094395102393196 -2.094395102393196 -3.141592653589793  -1.570796326794897 -2.094395102393196 -3.141592653589793  -1.047197551196598 -2.094395102393196 -3.141592653589793  -0.5235987755982987 -2.094395102393196 -3.141592653589793  0 -2.094395102393196 -3.141592653589793  0.5235987755982987 -2.094395102393196 -3.141592653589793  1.047197551196597 -2.094395102393196 -3.141592653589793  1.570796326794897 -2.094395102393196 -3.141592653589793  2.094395102393196 -2.094395102393196 -3.141592653589793  2.617993877991494 -2.094395102393196 -3.141592653589793  3.141592653589793 -2.094395102393196 -3.141592653589793  -3.141592653589793 -1.570796326794897 -3.141592653589793  -2.617993877991494 -1.570796326794897 -3.141592653589793  -2.094395102393196 -1.570796326794897 -3.141592653589793  -1.570796326794897 -1.570796326794897 -3.141592653589793  -1.047197551196598 -1.570796326794897 -3.141592653589793  -0.5235987755982987 -1.570796326794897 -3.141592653589793  0 -1.570796326794897 -3.141592653589793  0.5235987755982987 -1.570796326794897 -3.141592653589793  1.047197551196597 -1.570796326794897 -3.141592653589793  1.570796326794897 -1.570796326794897 -3.141592653589793  2.094395102393196 -1.570796326794897 -3.141592653589793  2.617993877991494 -1.570796326794897 -3.141592653589793  3.141592653589793 -1.570796326794897 -3.141592653589793  -3.141592653589793 -1.047197551196598 -3.141592653589793  -2.617993877991494 -1.047197551196598 -3.141592653589793  -2.094395102393196 -1.047197551196598 -3.141592653589793  -1.570796326794897 -1.047197551196598 -3.141592653589793  -1.047197551196598 -1.047197551196598 -3.141592653589793  -0.5235987755982987 -1.047197551196598 -3.141592653589793  0 -1.047197551196598 -3.141592653589793  0.5235987755982987 -1.047197551196598 -3.141592653589793  1.047197551196597 -1.047197551196598 -3.141592653589793  1.570796326794897 -1.047197551196598 -3.141592653589793  2.094395102393196 -1.047197551196598 -3.141592653589793  2.617993877991494 -1.047197551196598 -3.141592653589793  3.141592653589793 -1.047197551196598 -3.141592653589793  -3.141592653589793 -0.5235987755982987 -3.141592653589793  -2.617993877991494 -0.5235987755982987 -3.141592653589793  -2.094395102393196 -0.5235987755982987 -3.141592653589793  -1.570796326794897 -0.5235987755982987 -3.141592653589793  -1.047197551196598 -0.5235987755982987 -3.141592653589793  -0.5235987755982987 -0.5235987755982987 -3.141592653589793  0 -0.5235987755982987 -3.141592653589793  0.5235987755982987 -0.5235987755982987 -3.141592653589793  1.047197551196597 -0.5235987755982987 -3.141592653589793  1.570796326794897 -0.5235987755982987 -3.141592653589793  2.094395102393196 -0.5235987755982987 -3.141592653589793  2.617993877991494 -0.5235987755982987 -3.141592653589793  3.141592653589793 -0.5235987755982987 -3.141592653589793  -3.141592653589793 0 -3.141592653589793  -2.617993877991494 0 -3.141592653589793  -2.094395102393196 0 -3.141592653589793  -1.570796326794897 0 -3.141592653589793  -1.047197551196598 0 -3.141592653589793  -0.5235987755982987 0 -3.141592653589793  0 0 -3.141592653589793  0.5235987755982987 0 -3.141592653589793  1.047197551196597 0 -3.141592653589793  1.570796326794897 0 -3.141592653589793  2.094395102393196 0 -3.141592653589793  2.617993877991494 0 -3.141592653589793  3.141592653589793 0 -3.141592653589793  -3.141592653589793 0.5235987755982987 -3.141592653589793  -2.617993877991494 0.5235987755982987 -3.141592653589793  -2.094395102393196 0.5235987755982987 -3.141592653589793  -1.570796326794897 0.5235987755982987 -3.141592653589793  -1.047197551196598 0.5235987755982987 -3.141592653589793  -0.5235987755982987 0.5235987755982987 -3.141592653589793  0 0.5235987755982987 -3.141592653589793  0.5235987755982987 0.5235987755982987 -3.141592653589793  1.047197551196597 0.5235987755982987 -3.141592653589793  1.570796326794897 0.5235987755982987 -3.141592653589793  2.094395102393196 0.5235987755982987 -3.141592653589793  2.617993877991494 0.5235987755982987 -3.141592653589793  3.141592653589793 0.5235987755982987 -3.141592653589793  -3.141592653589793 1.047197551196597 -3.141592653589793  -2.617993877991494 1.047197551196597 -3.141592653589793  -2.094395102393196 1.047197551196597 -3.141592653589793  -1.570796326794897 1.047197551196597 -3.141592653589793  -1.047197551196598 1.047197551196597 -3.141592653589793  -0.5235987755982987 1.047197551196597 -3.141592653589793  0 1.047197551196597 -3.141592653589793  0.5235987755982987 1.047197551196597 -3.141592653589793  1.047197551196597 1.047197551196597 -3.141592653589793  1.570796326794897 1.047197551196597 -3.141592653589793  2.094395102393196 1.047197551196597 -3.141592653589793  2.617993877991494 1.047197551196597 -3.141592653589793  3.141592653589793 1.047197551196597 -3.141592653589793  -3.141592653589793 1.570796326794897 -3.141592653589793  -2.617993877991494 1.570796326794897 -3.141592653589793  -2.094395102393196 1.570796326794897 -3.141592653589793  -1.570796326794897 1.570796326794897 -3.141592653589793  -1.047197551196598 1.570796326794897 -3.141592653589793  -0.5235987755982987 1.570796326794897 -3.141592653589793  0 1.570796326794897 -3.141592653589793  0.5235987755982987 1.570796326794897 -3.141592653589793  1.047197551196597 1.570796326794897 -3.141592653589793  1.570796326794897 1.570796326794897 -3.141592653589793  2.094395102393196 1.570796326794897 -3.141592653589793  2.617993877991494 1.570796326794897 -3.141592653589793  3.141592653589793 1.570796326794897 -3.141592653589793  -3.141592653589793 2.094395102393196 -3.141592653589793  -2.617993877991494 2.094395102393196 -3.141592653589793  -2.094395102393196 2.094395102393196 -3.141592653589793  -1.570796326794897 2.094395102393196 -3.141592653589793  -1.047197551196598 2.094395102393196 -3.141592653589793  -0.5235987755982987 2.094395102393196 -3.141592653589793  0 2.094395102393196 -3.141592653589793  0.5235987755982987 2.094395102393196 -3.141592653589793  1.047197551196597 2.094395102393196 -3.141592653589793  1.570796326794897 2.094395102393196 -3.141592653589793  2.094395102393196 2.094395102393196 -3.141592653589793  2.617993877991494 2.094395102393196 -3.141592653589793  3.141592653589793 2.094395102393196 -3.141592653589793  -3.141592653589793 2.617993877991494 -3.141592653589793  -2.617993877991494 2.617993877991494 -3.141592653589793  -2.094395102393196 2.617993877991494 -3.141592653589793  -1.570796326794897 2.617993877991494 -3.141592653589793  -1.047197551196598 2.617993877991494 -3.141592653589793  -0.5235987755982987 2.617993877991494 -3.141592653589793  0 2.617993877991494 -3.141592653589793  0.5235987755982987 2.617993877991494 -3.141592653589793  1.047197551196597 2.617993877991494 -3.141592653589793  1.570796326794897 2.617993877991494 -3.141592653589793  2.094395102393196 2.617993877991494 -3.141592653589793  2.617993877991494 2.617993877991494 -3.141592653589793  3.141592653589793 2.617993877991494 -3.141592653589793  -3.141592653589793 3.141592653589793 -3.141592653589793  -2.617993877991494 3.141592653589793 -3.141592653589793  -2.094395102393196 3.141592653589793 -3.141592653589793  -1.570796326794897 3.141592653589793 -3.141592653589793  -1.047197551196598 3.141592653589793 -3.141592653589793  -0.5235987755982987 3.141592653589793 -3.141592653589793  0 3.141592653589793 -3.141592653589793  0.5235987755982987 3.141592653589793 -3.141592653589793  1.047197551196597 3.141592653589793 -3.141592653589793  1.570796326794897 3.141592653589793 -3.141592653589793  2.094395102393196 3.141592653589793 -3.141592653589793  2.617993877991494 3.141592653589793 -3.141592653589793  3.141592653589793 3.141592653589793 -3.141592653589793  -3.141592653589793 -3.141592653589793 -2.617993877991494  -2.617993877991494 -3.141592653589793 -2.617993877991494  -2.094395102393196 -3.141592653589793 -2.617993877991494  -1.570796326794897 -3.141592653589793 -2.617993877991494  -1.047197551196598 -3.141592653589793 -2.617993877991494  -0.5235987755982987 -3.141592653589793 -2.617993877991494  0 -3.141592653589793 -2.617993877991494  0.5235987755982987 -3.141592653589793 -2.617993877991494  1.047197551196597 -3.141592653589793 -2.617993877991494  1.570796326794897 
[...]
<PointData  Scalars="f_47992"> 
<DataArray  type="Float64"  Name="f_47992"  format="ascii">5.2876697513120671e-02  4.4284416179770476e-02  2.3102884012475251e-02  -6.2186451572845893e-04  -1.9865479133043148e-02  -4.2815184902092393e-02  -5.1980750540417169e-02  -4.1995819334588493e-02  -2.4640196889569949e-02  -1.6100622050725052e-03  2.0638407016328152e-02  4.1409699766229671e-02  5.2876697513120671e-02  4.5641648558956423e-02  -5.0875794766701810e-01  -9.1133388502562196e-01  -1.0670555273527569e+00  -9.5417627952236084e-01  -5.8190602647116352e-01  -4.3982666885817333e-02  5.0956280351758532e-01  9.1310156729046732e-01  1.0693588849086901e+00  9.5085448538961959e-01  5.7774014104258176e-01  4.5641648558956423e-02  2.1002282944098817e-02  -9.1403008972330579e-01  -1.5849107751963492e+00  -1.8383720712365246e+00  -1.6124051436330245e+00  -9.4990917182676005e-01  -2.0751664282420396e-02  9.0848421251919209e-01  1.5846248129767286e+00  1.8382484282675520e+00  1.6151781946927821e+00  9.5519232428749312e-01  2.1002282944098817e-02  -6.6911219708680643e-04  -1.0667629574983111e+00  -1.8408440808560660e+00  -2.1180047114085507e+00  -1.8379461267286277e+00  -1.0684590196818129e+00  -3.2056575643898935e-05  1.0671193149949720e+00  1.8376206537841022e+00  2.1137984425777003e+00  1.8357300526839102e+00  1.0663741652673082e+00  -6.6911219708680643e-04  -2.0728772824326214e-02  -9.5007968455242497e-01  -1.6153389919641477e+00  -1.8368139166022086e+00  -1.5855083393062472e+00  -9.1395000737781573e-01  2.1459875134795681e-02  9.5533947459788326e-01  1.6173750522516934e+00  1.8347914818478717e+00  1.5843840703023453e+00  9.0812995379653971e-01  -2.0728772824326214e-02  -4.2349991292244427e-02  -5.8282805851753983e-01  -9.5339529360774111e-01  -1.0674102921781281e+00  -9.0779806519518025e-01  -5.0808087109155819e-01  4.4089354505434122e-02  5.8130578689283252e-01  9.4854511333574820e-01  1.0698628951438456e+00  9.1274392992035835e-01  5.0813328404164249e-01  -4.2349991292244427e-02  -4.9342198291064857e-02  -4.2488632238711604e-02  -2.2012778592857603e-02  2.5925685929754509e-04  2.3802882603793925e-02  4.0671629677561001e-02  5.1389201462281188e-02  4.0772927328692081e-02  2.4084822418663301e-02  -9.6814261636122916e-04  -2.1764762921456300e-02  -4.3190976037847190e-02  -4.9342198291064857e-02  -4.3115158590594893e-02  5.0730250659476439e-01  9.1323866349911187e-01  1.0715574630516762e+00  9.5005917011673446e-01  5.8117131355503227e-01  4.1968886192630707e-02  -5.0861282631042715e-01  -9.0925017594765800e-01  -1.0679995125080912e+00  -9.5173655409380853e-01  -5.8166440060649238e-01  -4.3115158590594893e-02  -2.3083591752782455e-02  9.1035226283503434e-01  1.5856756983433016e+00  1.8360676180159581e+00  1.6169326267038293e+00  9.5235466029252736e-01  2.1966700199548599e-02  -9.1439513716176424e-01  -1.5836196996794962e+00  -1.8395343367034278e+00  -1.6117799181498935e+00  -9.4958261979861103e-01  -2.3083591752782455e-02  4.7842089114406893e-04  1.0691456446172056e+00  1.8377614692731281e+00  2.1174283439153165e+00  1.8400136168344063e+00  1.0630864312580650e+00  7.9500540931470929e-04  -1.0693166871963498e+00  -1.8382910746563388e+00  -2.1158916783238810e+00  -1.8387610712609428e+00  -1.0686598578517061e+00  4.7842089114406893e-04  1.9818562559968726e-02  9.5280315769666424e-01  1.6173892452621244e+00  1.8353293740839918e+00  1.5828346502610340e+00  9.1128542123416556e-01  -2.4231516176363804e-02  -9.5070824481747240e-01  -1.6094006547248307e+00  -1.8380874612976659e+00  -1.5828913641844926e+00  -9.1203223301621705e-01  1.9818562559968726e-02  4.1283721364438898e-02  5.8278001628783849e-01  9.5066577836830868e-01  1.0674963176800643e+00  9.1525958138724861e-01  5.1002519066582197e-01  -4.4363456636709805e-02  -5.8002237933795231e-01  -9.5323371296995107e-01  -1.0681622840099718e+00  -9.0907591356611728e-01  -5.0801932481573953e-01  4.1283721364438898e-02  5.2876697513120671e-02  4.4284416179770476e-02  2.3102884012475251e-02  -6.2186451572845893e-04  -1.9865479133043148e-02  -4.2815184902092393e-02  -5.1980750540417169e-02  -4.1995819334588493e-02  -2.4640196889569949e-02  -1.6100622050725052e-03  2.0638407016328152e-02  4.1409699766229671e-02  5.2876697513120671e-02  4.5958933300900000e-02  2.2911304332309420e-02  -1.2071877986518924e-04  -2.3086573708980953e-02  -3.9407713383437570e-02  -5.0120969675044862e-02  -4.2248775700823714e-02  -2.5838269747082306e-02  3.2149884423211396e-03  2.4740821212104434e-02  4.2743891425392117e-02  5.1498346824592700e-02  4.5958933300900000e-02  2.1993170432586067e-02  -4.5988894781436890e-01  -8.1221473439236913e-01  -9.4809949234544943e-01  -8.4054395838114704e-01  -5.0074881225615442e-01  -2.6441204851514816e-02  4.6015105002714141e-01  8.1100681772810856e-01  9.4571181878982336e-01  8.3500618173410279e-01  5.0104172929102153e-01  2.1993170432586067e-02  -2.3427161347948206e-03  -8.1242412665540731e-01  -1.3954857969403256e+00  -1.6091951953801540e+00  -1.3995850020613112e+00  -8.1061927252484622e-01  1.5644586671990854e-03  8.0987608652444298e-01  1.3954436594133188e+00  1.6083964245567897e+00  1.3998731090560037e+00  8.1460607819705821e-01  -2.3427161347948206e-03  -2.4284128165789457e-02  -9.4750984627537860e-01  -1.6077541771783299e+00  -1.8376080994436566e+00  -1.5865619309196144e+00  -9.0612195356922731e-01  2.4183892215611808e-02  9.4783094432222881e-01  1.6094858001826149e+00  1.8387932637274562e+00  1.5820837665786316e+00  9.0444354606632571e-01  -2.4284128165789457e-02  -4.2899952095354715e-02  -8.3760014878268596e-01  -1.3997678770043380e+00  -1.5823906100567795e+00  -1.3565473798537822e+00  -7.6691425949598613e-01  4.1861768268549822e-02  8.3922605889872204e-01  1.3969613095864308e+00  1.5813276648824344e+00  1.3536685926309620e+00  7.6450937620790205e-01  -4.2899952095354715e-02  -4.9460440843456410e-02  -5.0173563808226707e-01  -8.1202149828688042e-01  -9.0658059869244556e-01  -7.6361861836990663e-01  -4.1628214278265685e-01  5.0646002538389454e-02  5.0152184374659248e-01  8.1130336510353074e-01  9.0882521196941091e-01  7.6795122694493068e-01  4.1550350032790734e-01  -4.9460440843456410e-02  -4.5408692091462290e-02  -2.2553920265350236e-02  1.5088107982407055e-03  2.5780271294465192e-02  4.2268524934063398e-02  5.0651123560816434e-02  4.4506350496432270e-02  2.4395103376422120e-02  3.7404295894554818e-04  -2.4233309214811070e-02  -4.1941116092964428e-02  -4.9433073241842734e-02  -4.5408692091462290e-02  -2.6002058090199925e-02  4.5744846962947511e-01  8.1289132585361945e-01  9.4548644907487978e-01  8.3806687546903380e-01  5.0079697162666492e-01  2.3597588302179361e-02  -4.6012292938800459e-01  -8.1065469874816598e-01  -9.4726950564146928e-01  -8.3982182656923254e-01  -5.0257911057116755e-01  -2.6002058090199925e-02  3.5646296487110603e-03  8.1162627579843494e-01  1.3936177411776285e+00  1.6101912295101029e+00  1.4001548631569860e+00  8.1430159440896510e-01  -5.3616016091236878e-03  -8.1037238577163673e-01  -1.3939762489488650e+00  -1.6096485556062770e+00  -1.3951183021115934e+00  -8.0974631658262242e-01  3.5646296487110603e-03  2.2053509347085658e-02  9.4945551952814189e-01  1.6087780825053684e+00  1.8400269626543904e+00  1.5792938298134425e+00  9.0614567985074401e-01  -2.5566150282199697e-02  -9.4835485763113814e-01  -1.6076226360169490e+00  -1.8380627761330566e+00  -1.5855333258342552e+00  -9.0663647323122099e-01  2.2053509347085658e-02  4.3004487272332949e-02  8.3979867536072261e-01  1.3985794857270950e+00  1.5830440445545289e+00  1.3554606192281704e+00  7.6684069741367911e-01  -4.5333158862009559e-02  -8.3638193970618935e-01  -1.3977701698916241e+00  -1.5847888564683388e+00  -1.3549464429369811e+00  -7.7003988121922573e-01  4.3004487272332949e-02  5.2297129835272231e-02  5.0475203694725490e-01  8.0751954240768853e-01  9.0775819777213229e-01  7.6818920105642141e-01  4.1442545613905346e-01  -4.6357660768583067e-02  -5.0229287861289151e-01  -8.0928274074340012e-01  -9.0491559139213096e-01  -7.6535717020777572e-01  -4.1695711175615269e-01  5.2297129835272231e-02  4.5958933300900000e-02  2.2911304332309420e-02  -1.2071877986518924e-04  -2.3086573708980953e-02  -3.9407713383437570e-02  -5.0120969675044862e-02  -4.2248775700823714e-02  -2.5838269747082306e-02  3.2149884423211396e-03  2.4740821212104434e-02  4.2743891425392117e-02  5.1498346824592700e-02  4.5958933300900000e-02  2.3193937188085281e-02  1.2723919641619227e-03  -2.3224364466524500e-02  -4.3233006055997940e-02  -4.8674507200511356e-02  -4.3923046608542245e-02  -2.4849500449452049e-02  1.1430921058521095e-03  2.5397921733469275e-02  3.9851462208418273e-02  4.8074960284853002e-02  3.9387689545603233e-02  2.3193937188085281e-02  2.8680724561467876e-03  -2.8929580460604132e-01  -4.9628652526169192e-01  -5.7547374757015357e-01  -4.9597530571587756e-01  -2.9150114659478371e-01  1.3801878950167761e-03  2.8636066256995274e-01  4.9651267504128616e-01  5.7488186521451223e-01  4.9893585554832992e-01  2.8759421081030473e-01  2.8680724561467876e-03  -2.3898209728480505e-02  -4.9732921276711123e-01  -8.3591213784399543e-01  -9.4812962398370026e-01  -8.1053603016469711e-01  -4.5370993779608870e-01  2.1632839964627469e-02  4.9931743708048554e-01  8.3441961838151590e-01  9.4766197921229434e-01  8.0953877003403729e-01  4.5181567815240958e-01  -2.3898209728480505e-02  -4.1495535369616574e-02  -5.7357882584854258e-01  -9.4795565419185079e-01  -1.0678206215244546e+00  -9.0411677847762251e-01  -5.0095507286816665e-01  4.3031335844288796e-02  5.7462078677175554e-01  9.4934896964424909e-01  1.0658856616431831e+00  9.0446952314609730e-01  5.0029111546080396e-01  -4.1495535369616574e-02  -4.9489752515670712e-02  -4.9868556173059586e-01  -8.0950932461543756e-01  -9.0439741363515602e-01  -7.6078616759281947e-01  -4.1075747655716666e-01  5.0583541892354651e-02  4.9804975981641508e-01  8.1109465404887404e-01  9.0362026603590651e-01  7.5902568080118493e-01  4.1309550696988995e-01  -4.9489752515670712e-02  -4.2147347252470706e-02  -2.8803485346996227e-01  -4.5431623727165421e-01  -4.9816972285923472e-01  -4.1135945440983301e-01  -2.1115781593161323e-01  4.3482814161426867e-02  2.9031557701743338e-01  4.5331144283519142e-01  5.0030498785320510e-01  4.1103964198936965e-01  2.1300820336494475e-01  -4.2147347252470706e-02  -2.6218504148196421e-02  5.9893513917020117e-04  2.3828769114492283e-02  4.2025573586440386e-02  4.9308511309396605e-02  4.2801445242714231e-02  2.5251583709153303e-02  -1.0325725986619842e-03  -2.4364298945863876e-02  -4.3355450881160870e-02  -4.9501735420034880e-02  -4.3077998664069445e-02  -2.6218504148196421e-02  6.0843206138859289e-04  2.8623772964829858e-01  4.9563420224514210e-01  5.7534872337893939e-01  4.9995151154651030e-01  2.8874673009242641e-01  8.7856202003465313e-04  -2.8691180979501429e-01  -4.9833727013944612e-01  -5.7238056048984054e-01  -4.9704507715844065e-01  -2.8998996422199758e-01  6.0843206138859289e-04  2.4052239442011354e-02  4.9426394649339311e-01  8.3557317902055117e-01  9.4673136692497406e-01  8.0840815435396496e-01  4.5128986764821094e-01  -2.4398713973734915e-02  -4.9818413467765293e-01  -8.3463831425777824e-01  -9.4755376929909019e-01  -8.0855677745904042e-01  -4.5333416585793562e-01  2.4052239442011354e-02  4.3514058934919761e-02  5.7346151653903932e-01  9.4812751501960013e-01  1.0686477174087485e+00  9.0353130328242048e-01  4.9950766636293592e-01  -4.4102318746257911e-02  -5.7519171298294813e-01  -9.4713372014307118e-01  -1.0674016878259869e+00  -9.0331707654794791e-01  -5.0126581771211298e-01  4.3514058934919761e-02  4.9243151299737858e-02  4.9840537776336724e-01  8.0992521198363743e-01  9.0374860477257657e-01  7.6372636551580075e-01  4.1100029798818505e-01  -5.0219420976313968e-02  -4.9643923947785840e-01  -8.0878586755271953e-01  -9.0404586075517901e-01  -7.6074463164892248e-01  -4.1191601156028879e-01  4.9243151299737858e-02  4.5300006250798788e-02  2.8724237306763123e-01  4.5491129668034869e-01  5.0119641498681233e-01  4.0969785322810459e-01  2.1363059284521521e-01  -4.0014920849203842e-02  -2.8746386017252795e-01  -4.5419582105141532e-01  -4.9854154504538528e-01  -4.1121319200288864e-01  -2.1462008996782997e-01  4.5300006250798788e-02  2.3193937188085281e-02  1.2723919641619227e-03  -2.3224364466524500e-02  -4.3233006055997940e-02  -4.8674507200511356e-02  -4.3923046608542245e-02  -2.4849500449452049e-02  1.1430921058521095e-03  2.5397921733469275e-02  3.9851462208418273e-02  4.8074960284853002e-02  3.9387689545603233e-02  2.3193937188085281e-02  1.6874452059064443e-03  -2.3301228760993803e-02  -4.1613300806749742e-02  -5.0853650215831790e-02  -4.2479701932441355e-02  -2.4098467318057641e-02  -1.7813481277355450e-04  2.2330226923726340e-02  4.1259875909046444e-02  5.0997246199997695e-02  4.0533126998066563e-02  2.5687130400717160e-02  1.6874452059064443e-03  -2.4099959949073806e-02  -4.3293442536177465e-02  -5.1888746297617701e-02  -4.4233533825005326e-02  -2.5244585867662529e-02  -6.3657729590392955e-04  2.4361982493835314e-02  4.4162017144462024e-02  5.0580840193396474e-02  4.0819929525821322e-02  2.4237899865587376e-02  2.0507703355510561e-03  -2.4099959949073806e-02  -4.2980215056529145e-02  -4.9586465259951452e-02  -4.3018716418350506e-02  -2.5981290285244176e-02  -4.5004610049300417e-04  2.2599347122208426e-02  4.3523956636825976e-02  4.6938086745517367e-02  4.4261914436803357e-02  2.6761311924052695e-02  -5.6660033117886537e-04  -2.2576161628654466e-02  -4.2980215056529145e-02  -4.9871881894247003e-02  -4.2490714198517299e-02  -2.5978765893814999e-02  -1.2751333963951269e-03  2.5671789308507057e-02  4.4204803915094008e-02  4.8420563022236657e-02  4.2176479144387324e-02  2.6148940275030150e-02  3.5627639798086142e-04  -2.4818007911024637e-02  -4.0911566463721898e-02  -4.9871881894247003e-02  -4.1506189049056244e-02  -2.2653165235238030e-02  -1.0592307662074436e-03  2.5343227481681815e-02  4.6655319891451580e-02  4.9898020706933263e-02  4.3684788670720003e-02  2.4395019543923903e-02  -2.6750399886744003e-04  -2.3916959165626337e-02  -4.3828320168638871e-02  -5.0021674677695735e-02  -4.1506189049056244e-02  -2.6624213022199472e-02  -6.6819616199081120e-04  2.4044871716536277e-02  4.2384177428571625e-02  5.0515919215934894e-02  4.2952509275437076e-02  2.4737683843423609e-02  1.9027688153552865e-03  -2.4519978521572342e-02  -4.2961192437816306e-02  -5.1753160542362495e-02  -4.2975193184563575e-02  -2.6624213022199472e-02  4.5928616430589224e-04  2.6288348977401888e-02  4.1912617943549432e-02  4.9316574002140970e-02  4.2829801919781120e-02  2.4060640452641190e-02  1.4346466796991753e-03  -2.3118186427429764e-02  -4.2109907205084410e-02  -4.9669847602916588e-02  -4.1091400974252769e-02  -2.7202056696293064e-02  4.5928616430589224e-04  2.3320772598374669e-02  4.2365756729082937e-02  4.8498317811016378e-02  4.3978229497262232e-02  2.4247847577896435e-02  7.1834428192758077e-04  -2.2875753135236716e-02  -4.2524046005058658e-02  -5.0280443320124969e-02  -4.0483022824218798e-02  -2.5088764150866864e-02  1.0070356332880033e-04  2.3320772598374669e-02  4.1009907219443212e-02  4.9369915273006534e-02  4.4296539523453186e-02  2.4251456266084735e-02  -2.3467361165796399e-03  -2.4286624771506168e-02  -4.3669041729943778e-02  -5.1078294941065507e-02  -4.2824531543524301e-02  -2.5712235179166720e-02  9.5931767248592079e-04  2.4348185845324295e-02  4.1009907219443212e-02  4.7469373325899525e-02  4.2877120256547142e-02  2.5508400240009495e-02  -4.8903644714760517e-04  -2.5500625819685818e-02  -4.4642075480975707e-02  -4.8951211942649807e-02  -4.2558715422435896e-02  -2.4501823088273898e-02  2.1454127270594737e-04  2.7416172526139409e-02  4.2944162148177444e-02  4.7469373325899525e-02  4.3438828118289925e-02  2.6181882561642788e-02  8.6657310627958120e-04  -2.4603387902312434e-02  -4.4015429392386653e-02  -5.0230147178800241e-02  -4.5052399452578398e-02  -2.2621796035507867e-02  -3.2860809969124987e-04  2.5335771631415083e-02  4.2841376294658451e-02  4.9219495361730876e-02  4.3438828118289925e-02  2.4657741096446542e-02  -8.0294872162640614e-04  -2.3717763760229476e-02  -4.1838558249754035e-02  -4.9665167512101573e-02  -4.3053599563809185e-02  -2.4301945845447967e-02  3.0319235513681338e-04  2.5370850023451713e-02  3.9738121283458050e-02  5.0015973177949570e-02  4.1969337578937532e-02  2.4657741096446542e-02  1.6874452059064443e-03  -2.3301228760993803e-02  -4.1613300806749742e-02  -5.0853650215831790e-02  -4.2479701932441355e-02  -2.4098467318057641e-02  -1.7813481277355450e-04  2.2330226923726340e-02  4.1259875909046444e-02  5.0997246199997695e-02  4.0533126998066563e-02  2.5687130400717160e-02  1.6874452059064443e-03  -2.5111619409426810e-02  -4.2171012798911646e-02  -5.1009279542881425e-02  -4.3471542340513883e-02  -2.5743461855204344e-02  -2.8940810804161814e-04  2.2710166244512386e-02  4.3926672325164416e-02  4.9640026376730539e-02  4.4413645010004145e-02  2.3495335038159999e-02  2.2400650759766827e-03  -2.5111619409426810e-02  -4.1925130557201214e-02  2.1282557993784545e-01  4.1211809804044319e-01  4.9993327942307275e-01  4.5451538863371033e-01  2.8817989278995759e-01  4.5140368020198572e-02  -2.1434623560361266e-01  -4.1341397384121481e-01  -5.0186117278386766e-01  -4.5363535535912602e-01  -2.8774074057851445e-01  -4.1925130557201214e-02  -4.8238816672159492e-02  4.1140468811889530e-01  7.6174396006378720e-01  9.0446754788374084e-01  8.1029180299090497e-01  4.9863919604689183e-01  4.8082900057750580e-02  -4.1294584330125189e-01  -7.6065951146844457e-01  -9.0395831428832163e-01  -8.0829486841092957e-01  -4.9776319980318007e-01  -4.8238816672159492e-02  -4.2069739775850053e-02  4.9843277761202853e-01  9.0317132217324747e-01  1.0696018506325047e+00  9.4845461215560622e-01  5.7254952071545151e-01  4.0393660824866534e-02  -5.0154379165966667e-01  -9.0226923625526401e-01  -1.0671357967128732e+00  -9.4669622519465835e-01  -5.7292954943608854e-01  -4.2069739775850053e-02  -2.1779984010068486e-02  4.5235231552422206e-01  8.1053135348862237e-01  9.4944938527074774e-01  8.3305218426255256e-01  4.9459694677659227e-01  2.4205347455414878e-02  -4.5468832154432937e-01  -8.1084770482864621e-01  -9.4903123201609618e-01  -8.3411502277012117e-01  -4.9689238176181150e-01  -2.1779984010068486e-02  1.0554715133030629e-04  2.8811220393892173e-01  4.9728642058059769e-01  5.7270732324048113e-01  4.9598097345942815e-01  2.8657064970627677e-01  2.4776533081435968e-03  -2.9002603608637989e-01  -4.9970087921179046e-01  -5.7451696932332985e-01  -4.9669452642004408e-01  -2.8849444635041438e-01  1.0554715133030629e-04  2.5019645837845654e-02  4.3760587181167182e-02  4.8208545829443103e-02  4.1980967392897375e-02  2.5060937595923299e-02  1.0810708438280866e-03  -2.3559582617625755e-02  -4.0897351929294140e-02  -4.7729402739184502e-02  -3.8091251807240316e-02  -2.2537700417613885e-02  -2.1359698191017640e-03  2.5019645837845654e-02  4.4497216031928487e-02  -2.1351565078573878e-01  -4.1395181407663140e-01  -4.9808530991343297e-01  -4.5496470535704525e-01  -2.8874136228178604e-01  -4.1947330091584488e-02  2.1323370195002964e-01  4.1471775679179157e-01  5.0000061056349376e-01  4.5406246679025308e-01  2.8646507786996062e-01  4.4497216031928487e-02  4.8049707180492278e-02  -4.1169161776806240e-01  -7.6035106593817159e-01  -9.0347321533742841e-01  -8.0986432264612274e-01  -4.9744259082992381e-01  -5.1083922722133655e-02  4.1623446076062365e-01  7.6080569248484398e-01  9.0678689834895398e-01  8.0950162681059123e-01  4.9906871092512989e-01  4.8049707180492278e-02  3.9962454140132803e-02  -4.9919595995677929e-01  -9.0611603484093406e-01  -1.0675243112852386e+00  -9.4824806308934417e-01  -5.7496047930231653e-01  -4.2257418438214123e-02  5.0038734600821422e-01  9.0443783214500084e-01  1.0695275139635079e+00  9.5198697241622654e-01  5.7432366320989958e-01  3.9962454140132803e-02  2.1645816579289948e-02  -4.5527466370784503e-01  -8.0873172840463747e-01  -9.4750576032875045e-01  -8.3577716618127573e-01  -4.9823445286576173e-01  -2.4796381542741913e-