<?xml version="1.0"?>
<VTKFile type="UnstructuredGrid"  version="0.1"  >
<UnstructuredGrid>
<Piece  NumberOfPoints="2197" NumberOfCells="10368">
<Points>
<DataArray  type="Float64"  NumberOfComponents="3"  format="ascii">-3.141592653589793 -3.141592653589793 -3.141592653589793  -2.617993877991494 -3.141592653589793 -3.141592653589793  -2.094395102393196 -3.141592653589793 -3.141592653589793  -1.570796326794897 -3.141592653589793 -3.141592653589793  -1.047197551196598 -3.141592653589793 -3.141592653589793  -0.5235987755982987 -3.141592653589793 -3.141592653589793  0 -3.141592653589793 -3.141592653589793  0.5235987755982987 -3.141592653589793 -3.141592653589793  1.047197551196597 -3.141592653589793 -3.141592653589793  1.570796326794897 -3.141592653589793 -3.141592653589793  2.094395102393196 -3.141592653589793 -3.141592653589793  2.617993877991494 -3.141592653589793 -3.141592653589793  3.141592653589793 -3.141592653589793 -3.141592653589793  -3.141592653589793 -2.617993877991494 -3.141592653589793  -2.617993877991494 -2.617993877991494 -3.141592653589793  -2.094395102393196 -2.617993877991494 -3.141592653589793  -1.570796326794897 -2.617993877991494 -3.141592653589793  -1.047197551196598 -2.617993877991494 -3.141592653589793  -0.5235987755982987 -2.617993877991494 -3.141592653589793  0 -2.617993877991494 -3.141592653589793  0.5235987755982987 -2.617993877991494 -3.141592653589793  1.047197551196597 -2.617993877991494 -3.141592653589793  1.570796326794897 -2.617993877991494 -3.141592653589793  2.094395102393196 -2.617993877991494 -3.141592653589793  2.617993877991494 -2.617993877991494 -3.141592653589793  3.141592653589793 -2.617993877991494 -3.141592653589793  -3.141592653589793 -2.094395102393196 -3.141592653589793  -2.617993877991494 -2.094395102393196 -3.141592653589793  -2.094395102393196 -2.094395102393196 -3.141592653589793  -1.570796326794897 -2.094395102393196 -3.141592653589793  -1.047197551196598 -2.094395102393196 -3.141592653589793  -0.5235987755982987 -2.094395102393196 -3.141592653589793  0 -2.094395102393196 -3.141592653589793  0.5235987755982987 -2.094395102393196 -3.141592653589793  1.047197551196597 -2.094395102393196 -3.141592653589793  1.570796326794897 -2.094395102393196 -3.141592653589793  2.094395102393196 -2.094395102393196 -3.141592653589793  2.617993877991494 -2.094395102393196 -3.141592653589793  3.141592653589793 -2.094395102393196 -3.141592653589793  -3.141592653589793 -1.570796326794897 -3.141592653589793  -2.617993877991494 -1.570796326794897 -3.141592653589793  -2.094395102393196 -1.570796326794897 -3.141592653589793  -1.570796326794897 -1.570796326794897 -3.141592653589793  -1.047197551196598 -1.570796326794897 -3.141592653589793  -0.5235987755982987 -1.570796326794897 -3.141592653589793  0 -1.570796326794897 -3.141592653589793  0.5235987755982987 -1.570796326794897 -3.141592653589793  1.047197551196597 -1.570796326794897 -3.141592653589793  1.570796326794897 -1.570796326794897 -3.141592653589793  2.094395102393196 -1.570796326794897 -3.141592653589793  2.617993877991494 -1.570796326794897 -3.141592653589793  3.141592653589793 -1.570796326794897 -3.141592653589793  -3.141592653589793 -1.047197551196598 -3.141592653589793  -2.617993877991494 -1.047197551196598 -3.141592653589793  -2.094395102393196 -1.047197551196598 -3.141592653589793  -1.570796326794897 -1.047197551196598 -3.141592653589793  -1.047197551196598 -1.047197551196598 -3.141592653589793  -0.5235987755982987 -1.047197551196598 -3.141592653589793  0 -1.047197551196598 -3.141592653589793  0.5235987755982987 -1.047197551196598 -3.141592653589793  1.047197551196597 -1.047197551196598 -3.141592653589793  1.570796326794897 -1.047197551196598 -3.141592653589793  2.094395102393196 -1.047197551196598 -3.141592653589793  2.617993877991494 -1.047197551196598 -3.141592653589793  3.141592653589793 -1.047197551196598 -3.141592653589793  -3.141592653589793 -0.5235987755982987 -3.141592653589793  -2.617993877991494 -0.5235987755982987 -3.141592653589793  -2.094395102393196 -0.5235987755982987 -3.141592653589793  -1.570796326794897 -0.5235987755982987 -3.141592653589793  -1.047197551196598 -0.5235987755982987 -3.141592653589793  -0.5235987755982987 -0.5235987755982987 -3.141592653589793  0 -0.5235987755982987 -3.141592653589793  0.5235987755982987 -0.5235987755982987 -3.141592653589793  1.047197551196597 -0.5235987755982987 -3.141592653589793  1.570796326794897 -0.5235987755982987 -3.141592653589793  2.094395102393196 -0.5235987755982987 -3.141592653589793  2.617993877991494 -0.5235987755982987 -3.141592653589793  3.141592653589793 -0.5235987755982987 -3.141592653589793  -3.141592653589793 0 -3.141592653589793  -2.617993877991494 0 -3.141592653589793  -2.094395102393196 0 -3.141592653589793  -1.570796326794897 0 -3.141592653589793  -1.047197551196598 0 -3.141592653589793  -0.5235987755982987 0 -3.141592653589793  0 0 -3.141592653589793  0.5235987755982987 0 -3.141592653589793  1.047197551196597 0 -3.141592653589793  1.570796326794897 0 -3.141592653589793  2.094395102393196 0 -3.141592653589793  2.617993877991494 0 -3.141592653589793  3.141592653589793 0 -3.141592653589793  -3.141592653589793 0.5235987755982987 -3.141592653589793  -2.617993877991494 0.5235987755982987 -3.141592653589793  -2.094395102393196 0.5235987755982987 -3.141592653589793  -1.570796326794897 0.5235987755982987 -3.141592653589793  -1.047197551196598 0.5235987755982987 -3.141592653589793  -0.5235987755982987 0.5235987755982987 -3.141592653589793  0 0.5235987755982987 -3.141592653589793  0.5235987755982987 0.5235987755982987 -3.141592653589793  1.047197551196597 0.5235987755982987 -3.141592653589793  1.570796326794897 0.5235987755982987 -3.141592653589793  2.094395102393196 0.5235987755982987 -3.141592653589793  2.617993877991494 0.5235987755982987 -3.141592653589793  3.141592653589793 0.5235987755982987 -3.141592653589793  -3.141592653589793 1.047197551196597 -3.141592653589793  -2.617993877991494 1.047197551196597 -3.141592653589793  -2.094395102393196 1.047197551196597 -3.141592653589793  -1.570796326794897 1.047197551196597 -3.141592653589793  -1.047197551196598 1.047197551196597 -3.141592653589793  -0.5235987755982987 1.047197551196597 -3.141592653589793  0 1.047197551196597 -3.141592653589793  0.5235987755982987 1.047197551196597 -3.141592653589793  1.047197551196597 1.047197551196597 -3.141592653589793  1.570796326794897 1.047197551196597 -3.141592653589793  2.094395102393196 1.047197551196597 -3.141592653589793  2.617993877991494 1.047197551196597 -3.141592653589793  3.141592653589793 1.047197551196597 -3.141592653589793  -3.141592653589793 1.570796326794897 -3.141592653589793  -2.617993877991494 1.570796326794897 -3.141592653589793  -2.094395102393196 1.570796326794897 -3.141592653589793  -1.570796326794897 1.570796326794897 -3.141592653589793  -1.047197551196598 1.570796326794897 -3.141592653589793  -0.5235987755982987 1.570796326794897 -3.141592653589793  0 1.570796326794897 -3.141592653589793  0.5235987755982987 1.570796326794897 -3.141592653589793  1.047197551196597 1.570796326794897 -3.141592653589793  1.570796326794897 1.570796326794897 -3.141592653589793  2.094395102393196 1.570796326794897 -3.141592653589793  2.617993877991494 1.570796326794897 -3.141592653589793  3.141592653589793 1.570796326794897 -3.141592653589793  -3.141592653589793 2.094395102393196 -3.141592653589793  -2.617993877991494 2.094395102393196 -3.141592653589793  -2.094395102393196 2.094395102393196 -3.141592653589793  -1.570796326794897 2.094395102393196 -3.141592653589793  -1.047197551196598 2.094395102393196 -3.141592653589793  -0.5235987755982987 2.094395102393196 -3.141592653589793  0 2.094395102393196 -3.141592653589793  0.5235987755982987 2.094395102393196 -3.141592653589793  1.047197551196597 2.094395102393196 -3.141592653589793  1.570796326794897 2.094395102393196 -3.141592653589793  2.094395102393196 2.094395102393196 -3.141592653589793  2.617993877991494 2.094395102393196 -3.141592653589793  3.141592653589793 2.094395102393196 -3.141592653589793  -3.141592653589793 2.617993877991494 -3.141592653589793  -2.617993877991494 2.617993877991494 -3.141592653589793  -2.094395102393196 2.617993877991494 -3.141592653589793  -1.570796326794897 2.617993877991494 -3.141592653589793  -1.047197551196598 2.617993877991494 -3.141592653589793  -0.5235987755982987 2.617993877991494 -3.141592653589793  0 2.617993877991494 -3.141592653589793  0.5235987755982987 2.617993877991494 -3.141592653589793  1.047197551196597 2.617993877991494 -3.141592653589793  1.570796326794897 2.617993877991494 -3.141592653589793  2.094395102393196 2.617993877991494 -3.141592653589793  2.617993877991494 2.617993877991494 -3.141592653589793  3.141592653589793 2.617993877991494 -3.141592653589793  -3.141592653589793 3.141592653589793 -3.141592653589793  -2.617993877991494 3.141592653589793 -3.141592653589793  -2.094395102393196 3.141592653589793 -3.141592653589793  -1.570796326794897 3.141592653589793 -3.141592653589793  -1.047197551196598 3.141592653589793 -3.141592653589793  -0.5235987755982987 3.141592653589793 -3.141592653589793  0 3.141592653589793 -3.141592653589793  0.5235987755982987 3.141592653589793 -3.141592653589793  1.047197551196597 3.141592653589793 -3.141592653589793  1.570796326794897 3.141592653589793 -3.141592653589793  2.094395102393196 3.141592653589793 -3.141592653589793  2.617993877991494 3.141592653589793 -3.141592653589793  3.141592653589793 3.141592653589793 -3.141592653589793  -3.141592653589793 -3.141592653589793 -2.617993877991494  -2.617993877991494 -3.141592653589793 -2.617993877991494  -2.094395102393196 -3.141592653589793 -2.617993877991494  -1.570796326794897 -3.141592653589793 -2.617993877991494  -1.047197551196598 -3.141592653589793 -2.617993877991494  -0.5235987755982987 -3.141592653589793 -2.617993877991494  0 -3.141592653589793 -2.617993877991494  0.5235987755982987 -3.141592653589793 -2.617993877991494  1.047197551196597 -3.141592653589793 -2.617993877991494  1.570796326794897 
[...]
<PointData  Scalars="f_264876"> 
<DataArray  type="Float64"  Name="f_264876"  format="ascii">5.8365612303385932e-02  6.5940213553922905e-02  -2.9536988316969180e-02  9.0253778308697213e-03  -2.6002423689456826e-03  -3.6147013201445984e-02  -6.9222266778556793e-02  -3.5829048039684834e-02  -1.2657779555905262e-02  2.8359555472535136e-03  -3.7270174787029410e-02  5.3537175803087499e-02  5.8365612303385932e-02  4.7877936729820346e-02  -7.1442716739874246e-01  -1.0338347694787808e+00  -1.2062814065139369e+00  -1.0213718618452305e+00  -8.7180504423278626e-01  -5.8207334700342207e-02  7.0031398604015571e-01  1.1595597282283083e+00  1.1619642289529062e+00  9.5756944629605034e-01  8.6059177445582713e-01  4.7877936729820346e-02  8.2250645408740424e-03  -1.1626131463984719e+00  -1.3986329967865589e+00  -1.2325955374094320e+00  -1.6052234261051934e+00  -9.5361673223804155e-01  3.5123391057695255e-02  1.0218929665752030e+00  1.4057432722964145e+00  1.2890060907173388e+00  1.6126114955826478e+00  1.0154679690970332e+00  8.2250645408740424e-03  -1.3961310390247575e-02  -1.1517816303636308e+00  -1.3023187213727878e+00  -1.7736738920360684e+00  -1.2899298283306326e+00  -1.1581958171051185e+00  -1.1222737070764748e-02  1.2129117921359012e+00  1.2336239148600905e+00  1.7594479373567704e+00  1.2296026055144873e+00  1.2108051207914023e+00  -1.3961310390247575e-02  3.2933663130500092e-02  -9.5162093892429944e-01  -1.6167773369529730e+00  -1.2304667063533057e+00  -1.3997158578609887e+00  -1.1641396426479202e+00  1.1177091216124840e-02  1.0267002193837285e+00  1.6127034844148465e+00  1.2801809079262085e+00  1.3984324002417330e+00  1.0191498468001630e+00  3.2933663130500092e-02  -5.3349819793274106e-02  -8.7931918643308993e-01  -1.0136810554434936e+00  -1.2122145481846163e+00  -1.0201715436066832e+00  -6.9776690220395243e-01  4.4139132697595063e-02  8.7104089164991527e-01  9.5390583160848341e-01  1.1518355856166860e+00  1.1576806175073995e+00  7.0011369433465309e-01  -5.3349819793274106e-02  -4.3127709990787799e-02  -3.9022849212342420e-02  -1.1983472166409666e-02  1.5736084950474693e-02  -2.5683004239539828e-02  5.5303940255077524e-02  4.8817828311861371e-02  5.6768311315505401e-02  -3.4212687794331322e-02  9.7332058232592056e-03  -1.3155550910710237e-02  -5.3947705692412105e-02  -4.3127709990787799e-02  -6.3321829178614966e-02  7.0127135696201615e-01  1.1610022229590022e+00  1.1608068063807613e+00  9.6211817263510957e-01  8.7117279234393252e-01  3.7308530927983224e-02  -6.9810939092035651e-01  -1.0272186384587361e+00  -1.2012986556952188e+00  -1.0194170296530323e+00  -8.6006443835416235e-01  -6.3321829178614966e-02  2.9850876166110783e-02  1.0317201251669432e+00  1.4020528311906257e+00  1.2871748224664477e+00  1.6132568704574024e+00  1.0175560388750091e+00  7.1843564154670161e-03  -1.1657797291346377e+00  -1.4000594328911011e+00  -1.2372417734738346e+00  -1.6073786097063920e+00  -9.5380264175365914e-01  2.9850876166110783e-02  -1.3165521464519601e-02  1.2183544958693726e+00  1.2396766548427118e+00  1.7729488733599095e+00  1.2324010403033794e+00  1.2056813041979928e+00  -1.4039918780372872e-02  -1.1597566414198450e+00  -1.2930019056759141e+00  -1.7682111666312756e+00  -1.2875663166039304e+00  -1.1600241467686898e+00  -1.3165521464519601e-02  1.4002600133477799e-02  1.0200314827885419e+00  1.6128336331844793e+00  1.2833395399048975e+00  1.4054731121086659e+00  1.0165398603358382e+00  2.7618282446018015e-02  -9.6145102657776060e-01  -1.5921908476364519e+00  -1.2385788540042832e+00  -1.3971279697732903e+00  -1.1560814936225479e+00  1.4002600133477799e-02  3.7361094348730882e-02  8.7562953587525327e-01  9.5484268573232189e-01  1.1580368358577344e+00  1.1639848718060961e+00  7.1026125626708592e-01  -6.7510035287359049e-02  -8.6228743879265701e-01  -1.0174684645802272e+00  -1.2039440074968142e+00  -1.0225654792070658e+00  -6.9791154863251315e-01  3.7361094348730882e-02  5.8365612303385932e-02  6.5940213553922905e-02  -2.9536988316969180e-02  9.0253778308697213e-03  -2.6002423689456826e-03  -3.6147013201445984e-02  -6.9222266778556793e-02  -3.5829048039684834e-02  -1.2657779555905262e-02  2.8359555472535136e-03  -3.7270174787029410e-02  5.3537175803087499e-02  5.8365612303385932e-02  5.8432381201407285e-02  9.9172538974375089e-03  -4.4939559155464749e-02  -1.3552247986030937e-04  -6.9837511328704527e-02  -5.6620928129551787e-02  -3.4533184374011004e-02  -8.4013406419274368e-03  1.8577527885416011e-02  -6.3703947693678530e-03  4.3519153805783653e-02  9.0232372967903401e-02  5.8432381201407285e-02  -9.3522318906391778e-03  -6.4794033953431474e-01  -8.9597192445746399e-01  -9.9373490521635655e-01  -9.8811535577197085e-01  -6.8489048067883496e-01  -2.5396856746273528e-02  6.4876530205627192e-01  9.3520617778858794e-01  9.6711399479707205e-01  9.1674279728902563e-01  7.0152559346389887e-01  -9.3522318906391778e-03  -2.4396467526809049e-02  -9.3923999440452799e-01  -1.1995773467681858e+00  -1.3152551520687294e+00  -1.4134407894044432e+00  -8.0066648602916990e-01  4.9373534110148817e-02  8.9063958220359640e-01  1.1923530944051368e+00  1.3568691411484828e+00  1.3874548673647071e+00  8.5451437002190700e-01  -2.4396467526809049e-02  8.5388008793549838e-03  -9.6802599842804493e-01  -1.3581619004832080e+00  -1.5876344199685535e+00  -1.3054888937498852e+00  -9.8996241047996880e-01  5.8184855650299291e-03  9.8192429095524947e-01  1.3162358827072527e+00  1.5865143976348297e+00  1.2320925135378393e+00  1.0280432214291275e+00  8.5388008793549838e-03  -4.4079167738620403e-02  -9.3135705968297366e-01  -1.3823034214387375e+00  -1.2274124489033682e+00  -1.3405651969583317e+00  -1.0301399086185699e+00  7.4841723814404154e-02  9.8327725122625542e-01  1.3990463160648396e+00  1.2943495586385982e+00  1.3289303504489167e+00  8.7776321956094416e-01  -4.4079167738620403e-02  -8.5803619957870475e-02  -7.0757556722900661e-01  -8.5030134577057070e-01  -1.0233110486229611e+00  -8.7672924617209036e-01  -5.1507875383248924e-01  6.0322632173642414e-02  6.8712214354018408e-01  8.1087996647253457e-01  9.9323798768230664e-01  1.0270029280910133e+00  5.2187110715553986e-01  -8.5803619957870475e-02  -5.1543054449109303e-02  -2.5804561720138178e-03  1.7760683571933659e-02  -7.5652933284978182e-03  4.5936770362873254e-02  8.3276465196918448e-02  3.5886866028352921e-02  2.1060952002650953e-02  -4.4526870758146882e-02  -5.5228548781366422e-03  -7.5107157177029357e-02  -5.6525429568127006e-02  -5.1543054449109303e-02  -1.3271550182863034e-02  6.3883144243904388e-01  9.3250200512356596e-01  9.6900856788520029e-01  9.2866624807396381e-01  7.1297595907404909e-01  1.1831832933365330e-02  -6.4992000635960323e-01  -8.8616458787007257e-01  -9.8256995441245509e-01  -9.8284159874241972e-01  -6.8933627854189250e-01  -1.3271550182863034e-02  4.5848528979678393e-02  8.9631296698412899e-01  1.1931192049811068e+00  1.3592127210604517e+00  1.3864642822153739e+00  8.5046572854985114e-01  -3.0106023837106210e-02  -9.3181508365605059e-01  -1.1986717210856814e+00  -1.3154904117733841e+00  -1.3967633962152173e+00  -8.0209039821021821e-01  4.5848528979678393e-02  3.7530458189779050e-03  9.9030484528046114e-01  1.3155799948874887e+00  1.5978217444065441e+00  1.2224612732557303e+00  1.0319948939948356e+00  4.0285741091816696e-04  -9.6673031024522771e-01  -1.3524424049935007e+00  -1.5909973854649662e+00  -1.3056977570879569e+00  -9.8970026619819518e-01  3.7530458189779050e-03  8.2481142926924100e-02  9.8569550151602769e-01  1.4029901722246463e+00  1.3002661128392006e+00  1.3370619097216359e+00  8.8066248023845195e-01  -5.2425931950506273e-02  -9.2329618105792477e-01  -1.3856494121560412e+00  -1.2356260059081299e+00  -1.3399899271559592e+00  -1.0376373037834952e+00  8.2481142926924100e-02  6.7375760018184586e-02  6.9866151877195193e-01  8.0089795401131292e-01  9.9018556979055994e-01  1.0328925464499192e+00  5.2492219353712177e-01  -7.6012151462311259e-02  -7.1609826899414830e-01  -8.3993723990092817e-01  -1.0118197349060014e+00  -8.7850229816503211e-01  -5.2689998319924258e-01  6.7375760018184586e-02  5.8432381201407285e-02  9.9172538974375089e-03  -4.4939559155464749e-02  -1.3552247986030937e-04  -6.9837511328704527e-02  -5.6620928129551787e-02  -3.4533184374011004e-02  -8.4013406419274368e-03  1.8577527885416011e-02  -6.3703947693678530e-03  4.3519153805783653e-02  9.0232372967903401e-02  5.8432381201407285e-02  1.0045535056136283e-02  2.2236410203521500e-02  -2.4878681308399670e-02  -3.1458806996437619e-02  -5.3451914981537486e-02  -4.2792689233240956e-02  -1.7567984433953646e-02  -8.3451637439655108e-04  3.5237442850522292e-02  1.3156073978548710e-02  4.6407221201072865e-02  3.9481231417474267e-03  1.0045535056136283e-02  1.9350885298948829e-02  -3.4917914644020343e-01  -5.3674994313236479e-01  -6.2037081546107575e-01  -6.0240731949331772e-01  -3.2674893713165948e-01  -1.2999674112632973e-02  3.3780265104319618e-01  5.4088420959270522e-01  6.6082008151599603e-01  5.8617149943617475e-01  3.4040696429944728e-01  1.9350885298948829e-02  -2.3853249816321608e-02  -5.4719176771543321e-01  -8.0169840932910796e-01  -9.7777871838425823e-01  -8.5444283853245862e-01  -4.3690516723119993e-01  1.5778604300572235e-02  5.3943693653463520e-01  8.0589572761874217e-01  9.8219042580080140e-01  8.2424431294883904e-01  4.6905854100682409e-01  -2.3853249816321608e-02  -1.8961090051892809e-02  -6.5462656602689606e-01  -9.8581144465787529e-01  -1.0435625059356841e+00  -9.1965434054200246e-01  -5.3130767000348700e-01  3.4033907629990777e-02  6.2270751309140537e-01  9.7553700602969673e-01  1.0386405059321768e+00  9.2159078199009159e-01  5.6489655499198688e-01  -1.8961090051892809e-02  -5.7653670896823835e-02  -5.8006632595780350e-01  -8.2248407258107814e-01  -9.2007083789570787e-01  -8.2817448765182033e-01  -5.0440055150449725e-01  5.9844055693766413e-02  6.1043732806558904e-01  8.6027722441473742e-01  9.1360924815255062e-01  8.1619442193476821e-01  4.7175710692341799e-01  -5.7653670896823835e-02  -1.5580329235118651e-02  -3.4113105111451469e-01  -4.7825036444687591e-01  -5.6088869753771753e-01  -4.5812088685298824e-01  -1.9271151915149320e-01  4.2649286117479340e-02  3.1344045142325189e-01  4.3693908561224076e-01  5.2653865037922065e-01  5.0876604936997527e-01  2.0193648087616448e-01  -1.5580329235118651e-02  -2.5602032025883310e-02  -6.8574303721245441e-03  3.1416221583303955e-02  1.7575224237383679e-02  5.6630185104980302e-02  1.6988166938366536e-02  2.3629407088568911e-02  1.8138320096546291e-02  -3.0551945204272818e-02  -3.3777138833533678e-02  -5.1516609010224403e-02  -4.5102675866391002e-02  -2.5602032025883310e-02  -1.6301347693860831e-02  3.3306156857388741e-01  5.3510099833489899e-01  6.6577037436234687e-01  5.8609441923115779e-01  3.4785108202077175e-01  1.5626064419399038e-02  -3.4374815188165181e-01  -5.3349760069941810e-01  -6.1120024250772775e-01  -6.0659716564855537e-01  -3.1739137009753365e-01  -1.6301347693860831e-02  2.6339037036747073e-02  5.2213477612797499e-01  8.0672373161961231e-01  9.8086201838385645e-01  8.1986550062278774e-01  4.6734970500249823e-01  -3.5724764413892426e-02  -5.4753923221993295e-01  -8.0398393133588586e-01  -9.6623888181446449e-01  -8.5296336565196385e-01  -4.3224388719721302e-01  2.6339037036747073e-02  3.4187600100993511e-02  6.2400041978642617e-01  9.7197302109852413e-01  1.0510022828312142e+00  9.1276949989779521e-01  5.6157054761999170e-01  -2.7864292347944675e-02  -6.6073433550153904e-01  -9.7763103317170141e-01  -1.0450654783412840e+00  -9.1448359303978832e-01  -5.3616014870817963e-01  3.4187600100993511e-02  5.4074423136284966e-02  6.0865721554599528e-01  8.5909284442698486e-01  9.1975069798862341e-01  8.3280136878541344e-01  4.5949052694272008e-01  -5.8578026192813035e-02  -5.8033646003851924e-01  -8.2454066182916286e-01  -9.1617352238768623e-01  -8.3106471308902674e-01  -5.0953347998664067e-01  5.4074423136284966e-02  5.0235801233304143e-02  3.0735980104436655e-01  4.3329115452258832e-01  5.3004220756594911e-01  5.1398364908580085e-01  2.0113214707040042e-01  -1.2012089126746204e-02  -3.3580510906394001e-01  -4.7120438174243706e-01  -5.6606747284136993e-01  -4.6060023992318333e-01  -2.0598359599741872e-01  5.0235801233304143e-02  1.0045535056136283e-02  2.2236410203521500e-02  -2.4878681308399670e-02  -3.1458806996437619e-02  -5.3451914981537486e-02  -4.2792689233240956e-02  -1.7567984433953646e-02  -8.3451637439655108e-04  3.5237442850522292e-02  1.3156073978548710e-02  4.6407221201072865e-02  3.9481231417474267e-03  1.0045535056136283e-02  7.0240072946610079e-03  -1.1574206520156611e-02  -1.2727469626101122e-02  -1.1818689262732469e-03  -1.3341194422427821e-02  -1.2612054834063552e-02  4.8602628433996642e-04  -3.5379883701388555e-03  1.5689030210932018e-02  3.2545858446806790e-02  1.7536491200125119e-02  1.0857177977674421e-02  7.0240072946610079e-03  -6.1333764622100509e-03  -5.3432458832692209e-02  -5.3318820396708447e-02  -5.8770402348605602e-02  -5.1631740941936316e-02  -3.5513690591548850e-03  1.7745308320280151e-02  5.6718458887237776e-02  8.7354650890720253e-02  4.3749597401613070e-02  3.7596159328512459e-03  1.0772396395759590e-02  -6.1333764622100509e-03  -2.4088490850640621e-02  -8.1102656834397158e-02  -8.4890465687673194e-02  -6.5958021879585743e-02  -2.9918809378398712e-04  3.8442842380769594e-02  1.9397292555660729e-02  2.8104574518042783e-02  8.6528829962207371e-02  6.3364193144695602e-02  4.5067790102922589e-05  5.9945216820075106e-04  -2.4088490850640621e-02  -2.5781704781260992e-02  -5.1815776033493820e-02  -5.6947640020662417e-02  -7.8120181515890629e-03  6.4813810383439779e-02  5.4865733250069118e-02  -8.4668993284001889e-03  4.8230361897872269e-02  6.6867274509167976e-02  4.4463988855289321e-03  -5.3129771084800249e-02  -4.2288410669563473e-02  -2.5781704781260992e-02  -2.0359006408281803e-02  3.8508208606991075e-03  -3.7861425976559067e-03  5.4651010763872236e-02  1.0334660463137334e-01  4.2671084811917004e-02  1.7461484556965876e-02  5.3328759858471124e-02  -4.3553653428254919e-03  -5.7462027465178769e-02  -8.9083243666422021e-02  -8.0692538623372195e-02  -2.0359006408281803e-02  -1.3659504826995692e-02  -3.3685950830943823e-03  3.9713078587762917e-03  4.8776494121026338e-02  8.2800822620417922e-02  5.1385856070955589e-02  1.9336348085415359e-02  5.7146639290835523e-03  -4.8961502176004319e-02  -5.0706138248722096e-02  -5.2800212721914944e-02  -5.1391841420249031e-02  -1.3659504826995692e-02  4.2860142765660660e-04  1.2381281299719046e-02  2.3634384855571323e-02  2.4103153339045908e-02  2.5095096609362846e-02  5.7560006590050517e-03  6.8472104569654900e-03  -6.6398066415467062e-03  -1.6047035406488167e-02  9.3157459442166028e-03  -9.3414038971721403e-03  -2.8809982033380567e-02  4.2860142765660660e-04  1.2853889511996027e-02  4.8231723467448223e-02  7.9796696963266439e-02  5.0075134304201081e-02  7.1405674140865849e-03  2.6895956778062056e-03  -8.1365427035042502e-04  -5.0956363078758588e-02  -4.2681425403871778e-02  -3.8290343632985946e-02  -5.3861802312135221e-02  -1.5512691621591527e-03  1.2853889511996027e-02  3.6468395014198681e-03  4.7028815373318412e-02  8.5958337003111868e-02  5.1135893349686705e-02  -9.4666069751062273e-03  -6.3943431064216703e-03  -2.7319307096499993e-02  -8.2950938744571767e-02  -8.1114718152763748e-02  -6.5412556232217631e-02  3.6188568159669005e-03  4.9072331628474943e-02  3.6468395014198681e-03  -1.3269744207050582e-02  5.1386004805714612e-02  6.4268518179444498e-02  -3.2257162232424180e-03  -5.8096171698634493e-02  -5.8271908651570802e-02  -2.6285425889188547e-02  -4.6037541142423026e-02  -5.2169291449482791e-02  -2.0136301719608542e-03  7.8215293075919179e-02  4.7594068350589568e-02  -1.3269744207050582e-02  1.8997364281269739e-02  5.6693627188597370e-02  5.9902721338408764e-03  -6.0404338923439882e-02  -8.4935222534871846e-02  -8.3200335485882945e-02  -3.6830528931811449e-02  2.3976079556530617e-04  -1.9429237854066822e-03  4.9244002095741091e-02  8.0218270236488143e-02  4.1260258933537304e-02  1.8997364281269739e-02  1.8648771333136836e-02  -3.5741274578363325e-03  -4.6562709847275993e-02  -4.3223543841120753e-02  -4.5654452634184967e-02  -5.4727565094545801e-02  -3.6655473803783659e-03  -1.4152584331650637e-04  1.2045280041820173e-02  3.1463701806425153e-02  8.5844564725358521e-02  4.8748440544755217e-02  1.8648771333136836e-02  7.0240072946610079e-03  -1.1574206520156611e-02  -1.2727469626101122e-02  -1.1818689262732469e-03  -1.3341194422427821e-02  -1.2612054834063552e-02  4.8602628433996642e-04  -3.5379883701388555e-03  1.5689030210932018e-02  3.2545858446806790e-02  1.7536491200125119e-02  1.0857177977674421e-02  7.0240072946610079e-03  -2.0026708314601866e-02  -4.1015394522348557e-02  -5.9979407740905669e-02  -3.4142949185853276e-02  -3.8629725391053492e-02  1.8018708052400637e-02  1.3673203814493301e-02  2.7003954747382306e-02  6.4324635360454060e-02  1.7805760384672940e-02  2.8501127334354351e-02  -1.4273094427549740e-04  -2.0026708314601866e-02  -1.5174305884928796e-02  1.9999152600405318e-01  5.1712459700240421e-01  5.3045830336475375e-01  4.3992733709507154e-01  3.0882129919334789e-01  4.5117626767914441e-02  -2.0760882354764199e-01  -4.7575098960786494e-01  -5.7636293401010241e-01  -4.7607059576588290e-01  -3.3803186528560042e-01  -1.5174305884928796e-02  -5.3966105529966189e-02  4.5552303048693654e-01  8.3586906915773873e-01  9.2011591820431826e-01  8.5306186606868040e-01  6.0970178823831556e-01  5.5678342346278525e-02  -5.1634758051313179e-01  -8.2901535459102871e-01  -9.1718522027993354e-01  -8.1613039209684612e-01  -5.7513812454288527e-01  -5.3966105529966189e-02  -1.9443663308124071e-02  5.6998449870977452e-01  9.1269243309367543e-01  1.0516303318061098e+00  9.7120391185056620e-01  6.2071183026255883e-01  1.6596758613832977e-02  -5.3613279396144109e-01  -9.1107101167727300e-01  -1.0404573741908250e+00  -9.8288151408826552e-01  -6.4907882192298672e-01  -1.9443663308124071e-02  -1.6658199650832674e-02  4.7119815038681606e-01  8.2622096823139346e-01  9.9137353417182861e-01  7.9738862623713036e-01  5.2152149982714247e-01  2.2147671737790701e-02  -4.3576230004381972e-01  -8.6807726364755156e-01  -9.7236707539987710e-01  -8.0360110295918896e-01  -5.4255802732338509e-01  -1.6658199650832674e-02  1.2673218211133892e-02  3.3806634511961642e-01  5.7942502811814256e-01  6.4898729601454586e-01  5.3993203599004325e-01  3.2929106275507719e-01  4.1510510502542616e-04  -3.1574346679471249e-01  -6.1738595193547363e-01  -6.2579336717452216e-01  -5.2334710637918436e-01  -3.4996187825544495e-01  1.2673218211133892e-02  1.6251561690854201e-02  2.6242882056673439e-02  4.9126416212196336e-02  1.5283344576492330e-02  3.8804135958493323e-02  -8.5846518786251054e-03  -9.1442797375879976e-03  -4.4313618882533649e-02  -3.1234465786072800e-02  -1.2586447541937612e-02  -1.1682607140813522e-02  5.8505142610226039e-03  1.6251561690854201e-02  4.5302290106823372e-02  -2.0294754639589391e-01  -4.6777008196651032e-01  -5.7101048522398423e-01  -4.7467406677311330e-01  -3.4100874919272495e-01  -2.4456557188247359e-02  2.2250960226402416e-01  5.2011930361318315e-01  5.4409541233742376e-01  4.3202174633081175e-01  2.9880514668170727e-01  4.5302290106823372e-02  4.9433748597715571e-02  -5.0974795755318281e-01  -8.2884923765119467e-01  -9.1636302072393616e-01  -8.2979707568979177e-01  -5.8199917781864263e-01  -5.5791646184241969e-02  4.7762022482015676e-01  8.3479034545323205e-01  9.2710618769982645e-01  8.5292022368247777e-01  6.0930968059861457e-01  4.9433748597715571e-02  2.1862873841396176e-02  -5.2988990351348819e-01  -9.3058960598070706e-01  -1.0393926753007017e+00  -9.9377113834375097e-01  -6.6390156403045586e-01  -1.8475183089966343e-02  5.7185921659437733e-01  9.1319108390719350e-01  1.0590568345266123e+00  9.8337784719543264e-01  6.2482472019572721e-01  2.1862873841396176e-02  1.1467994838503961e-02  -4.3866686316176495e-01  -8.4941212910759245e-01  -9.6354718819992891e-01  -8.0032021320418878e-01  -5.5185974487035505e-01  -2.959588636