<?xml version="1.0"?>
<VTKFile type="UnstructuredGrid"  version="0.1"  >
<UnstructuredGrid>
<Piece  NumberOfPoints="2197" NumberOfCells="10368">
<Points>
<DataArray  type="Float64"  NumberOfComponents="3"  format="ascii">-3.141592653589793 -3.141592653589793 -3.141592653589793  -2.617993877991494 -3.141592653589793 -3.141592653589793  -2.094395102393196 -3.141592653589793 -3.141592653589793  -1.570796326794897 -3.141592653589793 -3.141592653589793  -1.047197551196598 -3.141592653589793 -3.141592653589793  -0.5235987755982987 -3.141592653589793 -3.141592653589793  0 -3.141592653589793 -3.141592653589793  0.5235987755982987 -3.141592653589793 -3.141592653589793  1.047197551196597 -3.141592653589793 -3.141592653589793  1.570796326794897 -3.141592653589793 -3.141592653589793  2.094395102393196 -3.141592653589793 -3.141592653589793  2.617993877991494 -3.141592653589793 -3.141592653589793  3.141592653589793 -3.141592653589793 -3.141592653589793  -3.141592653589793 -2.617993877991494 -3.141592653589793  -2.617993877991494 -2.617993877991494 -3.141592653589793  -2.094395102393196 -2.617993877991494 -3.141592653589793  -1.570796326794897 -2.617993877991494 -3.141592653589793  -1.047197551196598 -2.617993877991494 -3.141592653589793  -0.5235987755982987 -2.617993877991494 -3.141592653589793  0 -2.617993877991494 -3.141592653589793  0.5235987755982987 -2.617993877991494 -3.141592653589793  1.047197551196597 -2.617993877991494 -3.141592653589793  1.570796326794897 -2.617993877991494 -3.141592653589793  2.094395102393196 -2.617993877991494 -3.141592653589793  2.617993877991494 -2.617993877991494 -3.141592653589793  3.141592653589793 -2.617993877991494 -3.141592653589793  -3.141592653589793 -2.094395102393196 -3.141592653589793  -2.617993877991494 -2.094395102393196 -3.141592653589793  -2.094395102393196 -2.094395102393196 -3.141592653589793  -1.570796326794897 -2.094395102393196 -3.141592653589793  -1.047197551196598 -2.094395102393196 -3.141592653589793  -0.5235987755982987 -2.094395102393196 -3.141592653589793  0 -2.094395102393196 -3.141592653589793  0.5235987755982987 -2.094395102393196 -3.141592653589793  1.047197551196597 -2.094395102393196 -3.141592653589793  1.570796326794897 -2.094395102393196 -3.141592653589793  2.094395102393196 -2.094395102393196 -3.141592653589793  2.617993877991494 -2.094395102393196 -3.141592653589793  3.141592653589793 -2.094395102393196 -3.141592653589793  -3.141592653589793 -1.570796326794897 -3.141592653589793  -2.617993877991494 -1.570796326794897 -3.141592653589793  -2.094395102393196 -1.570796326794897 -3.141592653589793  -1.570796326794897 -1.570796326794897 -3.141592653589793  -1.047197551196598 -1.570796326794897 -3.141592653589793  -0.5235987755982987 -1.570796326794897 -3.141592653589793  0 -1.570796326794897 -3.141592653589793  0.5235987755982987 -1.570796326794897 -3.141592653589793  1.047197551196597 -1.570796326794897 -3.141592653589793  1.570796326794897 -1.570796326794897 -3.141592653589793  2.094395102393196 -1.570796326794897 -3.141592653589793  2.617993877991494 -1.570796326794897 -3.141592653589793  3.141592653589793 -1.570796326794897 -3.141592653589793  -3.141592653589793 -1.047197551196598 -3.141592653589793  -2.617993877991494 -1.047197551196598 -3.141592653589793  -2.094395102393196 -1.047197551196598 -3.141592653589793  -1.570796326794897 -1.047197551196598 -3.141592653589793  -1.047197551196598 -1.047197551196598 -3.141592653589793  -0.5235987755982987 -1.047197551196598 -3.141592653589793  0 -1.047197551196598 -3.141592653589793  0.5235987755982987 -1.047197551196598 -3.141592653589793  1.047197551196597 -1.047197551196598 -3.141592653589793  1.570796326794897 -1.047197551196598 -3.141592653589793  2.094395102393196 -1.047197551196598 -3.141592653589793  2.617993877991494 -1.047197551196598 -3.141592653589793  3.141592653589793 -1.047197551196598 -3.141592653589793  -3.141592653589793 -0.5235987755982987 -3.141592653589793  -2.617993877991494 -0.5235987755982987 -3.141592653589793  -2.094395102393196 -0.5235987755982987 -3.141592653589793  -1.570796326794897 -0.5235987755982987 -3.141592653589793  -1.047197551196598 -0.5235987755982987 -3.141592653589793  -0.5235987755982987 -0.5235987755982987 -3.141592653589793  0 -0.5235987755982987 -3.141592653589793  0.5235987755982987 -0.5235987755982987 -3.141592653589793  1.047197551196597 -0.5235987755982987 -3.141592653589793  1.570796326794897 -0.5235987755982987 -3.141592653589793  2.094395102393196 -0.5235987755982987 -3.141592653589793  2.617993877991494 -0.5235987755982987 -3.141592653589793  3.141592653589793 -0.5235987755982987 -3.141592653589793  -3.141592653589793 0 -3.141592653589793  -2.617993877991494 0 -3.141592653589793  -2.094395102393196 0 -3.141592653589793  -1.570796326794897 0 -3.141592653589793  -1.047197551196598 0 -3.141592653589793  -0.5235987755982987 0 -3.141592653589793  0 0 -3.141592653589793  0.5235987755982987 0 -3.141592653589793  1.047197551196597 0 -3.141592653589793  1.570796326794897 0 -3.141592653589793  2.094395102393196 0 -3.141592653589793  2.617993877991494 0 -3.141592653589793  3.141592653589793 0 -3.141592653589793  -3.141592653589793 0.5235987755982987 -3.141592653589793  -2.617993877991494 0.5235987755982987 -3.141592653589793  -2.094395102393196 0.5235987755982987 -3.141592653589793  -1.570796326794897 0.5235987755982987 -3.141592653589793  -1.047197551196598 0.5235987755982987 -3.141592653589793  -0.5235987755982987 0.5235987755982987 -3.141592653589793  0 0.5235987755982987 -3.141592653589793  0.5235987755982987 0.5235987755982987 -3.141592653589793  1.047197551196597 0.5235987755982987 -3.141592653589793  1.570796326794897 0.5235987755982987 -3.141592653589793  2.094395102393196 0.5235987755982987 -3.141592653589793  2.617993877991494 0.5235987755982987 -3.141592653589793  3.141592653589793 0.5235987755982987 -3.141592653589793  -3.141592653589793 1.047197551196597 -3.141592653589793  -2.617993877991494 1.047197551196597 -3.141592653589793  -2.094395102393196 1.047197551196597 -3.141592653589793  -1.570796326794897 1.047197551196597 -3.141592653589793  -1.047197551196598 1.047197551196597 -3.141592653589793  -0.5235987755982987 1.047197551196597 -3.141592653589793  0 1.047197551196597 -3.141592653589793  0.5235987755982987 1.047197551196597 -3.141592653589793  1.047197551196597 1.047197551196597 -3.141592653589793  1.570796326794897 1.047197551196597 -3.141592653589793  2.094395102393196 1.047197551196597 -3.141592653589793  2.617993877991494 1.047197551196597 -3.141592653589793  3.141592653589793 1.047197551196597 -3.141592653589793  -3.141592653589793 1.570796326794897 -3.141592653589793  -2.617993877991494 1.570796326794897 -3.141592653589793  -2.094395102393196 1.570796326794897 -3.141592653589793  -1.570796326794897 1.570796326794897 -3.141592653589793  -1.047197551196598 1.570796326794897 -3.141592653589793  -0.5235987755982987 1.570796326794897 -3.141592653589793  0 1.570796326794897 -3.141592653589793  0.5235987755982987 1.570796326794897 -3.141592653589793  1.047197551196597 1.570796326794897 -3.141592653589793  1.570796326794897 1.570796326794897 -3.141592653589793  2.094395102393196 1.570796326794897 -3.141592653589793  2.617993877991494 1.570796326794897 -3.141592653589793  3.141592653589793 1.570796326794897 -3.141592653589793  -3.141592653589793 2.094395102393196 -3.141592653589793  -2.617993877991494 2.094395102393196 -3.141592653589793  -2.094395102393196 2.094395102393196 -3.141592653589793  -1.570796326794897 2.094395102393196 -3.141592653589793  -1.047197551196598 2.094395102393196 -3.141592653589793  -0.5235987755982987 2.094395102393196 -3.141592653589793  0 2.094395102393196 -3.141592653589793  0.5235987755982987 2.094395102393196 -3.141592653589793  1.047197551196597 2.094395102393196 -3.141592653589793  1.570796326794897 2.094395102393196 -3.141592653589793  2.094395102393196 2.094395102393196 -3.141592653589793  2.617993877991494 2.094395102393196 -3.141592653589793  3.141592653589793 2.094395102393196 -3.141592653589793  -3.141592653589793 2.617993877991494 -3.141592653589793  -2.617993877991494 2.617993877991494 -3.141592653589793  -2.094395102393196 2.617993877991494 -3.141592653589793  -1.570796326794897 2.617993877991494 -3.141592653589793  -1.047197551196598 2.617993877991494 -3.141592653589793  -0.5235987755982987 2.617993877991494 -3.141592653589793  0 2.617993877991494 -3.141592653589793  0.5235987755982987 2.617993877991494 -3.141592653589793  1.047197551196597 2.617993877991494 -3.141592653589793  1.570796326794897 2.617993877991494 -3.141592653589793  2.094395102393196 2.617993877991494 -3.141592653589793  2.617993877991494 2.617993877991494 -3.141592653589793  3.141592653589793 2.617993877991494 -3.141592653589793  -3.141592653589793 3.141592653589793 -3.141592653589793  -2.617993877991494 3.141592653589793 -3.141592653589793  -2.094395102393196 3.141592653589793 -3.141592653589793  -1.570796326794897 3.141592653589793 -3.141592653589793  -1.047197551196598 3.141592653589793 -3.141592653589793  -0.5235987755982987 3.141592653589793 -3.141592653589793  0 3.141592653589793 -3.141592653589793  0.5235987755982987 3.141592653589793 -3.141592653589793  1.047197551196597 3.141592653589793 -3.141592653589793  1.570796326794897 3.141592653589793 -3.141592653589793  2.094395102393196 3.141592653589793 -3.141592653589793  2.617993877991494 3.141592653589793 -3.141592653589793  3.141592653589793 3.141592653589793 -3.141592653589793  -3.141592653589793 -3.141592653589793 -2.617993877991494  -2.617993877991494 -3.141592653589793 -2.617993877991494  -2.094395102393196 -3.141592653589793 -2.617993877991494  -1.570796326794897 -3.141592653589793 -2.617993877991494  -1.047197551196598 -3.141592653589793 -2.617993877991494  -0.5235987755982987 -3.141592653589793 -2.617993877991494  0 -3.141592653589793 -2.617993877991494  0.5235987755982987 -3.141592653589793 -2.617993877991494  1.047197551196597 -3.141592653589793 -2.617993877991494  1.570796326794897 
[...]
<PointData  Scalars="f_261100"> 
<DataArray  type="Float64"  Name="f_261100"  format="ascii">5.9229927643280701e-02  6.6211245042046618e-02  -2.8246743761159862e-02  8.1446279412048708e-03  -2.1958541823345347e-03  -3.6627279137541172e-02  -6.9719367159916598e-02  -3.5856701165017088e-02  -1.2761985131502033e-02  2.2733952645075670e-03  -3.6195443031257588e-02  5.4011678462862284e-02  5.9229927643280701e-02  4.8136959622741636e-02  -7.1063167236713753e-01  -1.0327867358783094e+00  -1.1975378597377457e+00  -1.0240019757671810e+00  -8.6384538720946957e-01  -5.8582986711112291e-02  6.9681110470835150e-01  1.1569438610563489e+00  1.1555854111995452e+00  9.5848837404305043e-01  8.5249894252062230e-01  4.8136959622741636e-02  8.0354823358978304e-03  -1.1601850737245361e+00  -1.4005624651102266e+00  -1.2497511916018591e+00  -1.6065267243640169e+00  -9.5457095958142113e-01  3.4070497494577391e-02  1.0208272731413082e+00  1.4077614935516725e+00  1.3051177643353222e+00  1.6138854777417433e+00  1.0182193800092272e+00  8.0354823358978304e-03  -1.3131274864246206e-02  -1.1452915802467556e+00  -1.3184040007173068e+00  -1.7801499810943222e+00  -1.3059203081596866e+00  -1.1517410359662181e+00  -1.0462339549987229e-02  1.2041099140662279e+00  1.2505721898052937e+00  1.7659458156528205e+00  1.2465095200412570e+00  1.2020735750538534e+00  -1.3131274864246206e-02  3.1951585808592718e-02  -9.5281798334865364e-01  -1.6178589213910941e+00  -1.2475562601372441e+00  -1.4017293805222846e+00  -1.1616428796691243e+00  1.0690703306192473e-02  1.0293955796532366e+00  1.6141025274542466e+00  1.2961827316056718e+00  1.4004441923250495e+00  1.0181575178921223e+00  3.1951585808592718e-02  -5.3836762657791422e-02  -8.7109465952185616e-01  -1.0163327998574749e+00  -1.2035054842665569e+00  -1.0191223694864073e+00  -6.9432653637577513e-01  4.4514646835252525e-02  8.6287936172049240e-01  9.5500316163711585e-01  1.1456152430544206e+00  1.1550220513485205e+00  6.9672737920498473e-01  -5.3836762657791422e-02  -4.4167179613987813e-02  -3.9324354733773229e-02  -1.1599000359883850e-02  1.4787632689646052e-02  -2.4705355068168448e-02  5.5743445657115011e-02  4.9702714564425585e-02  5.7163220684617350e-02  -3.2988928898541298e-02  8.9451437341444735e-03  -1.2670906981868601e-02  -5.3815988634837587e-02  -4.4167179613987813e-02  -6.3788980693411296e-02  6.9774377607817784e-01  1.1583406579579014e+00  1.1544655071568897e+00  9.6313015115164125e-01  8.6299840924586269e-01  3.7579826250758980e-02  -6.9469266162385868e-01  -1.0262221217978527e+00  -1.1928060882351388e+00  -1.0219856148790194e+00  -8.5219661209955877e-01  -6.3788980693411296e-02  2.8907170535145448e-02  1.0306148450422410e+00  1.4039913486071205e+00  1.3032756849551572e+00  1.6144980077782869e+00  1.0201895003330705e+00  6.9438030546618464e-03  -1.1632002643691306e+00  -1.4020679198333206e+00  -1.2542347387392445e+00  -1.6086970042984552e+00  -9.5461215365086782e-01  2.8907170535145448e-02  -1.2682903198609371e-02  1.2095716974391022e+00  1.2566548548841656e+00  1.7793340875348684e+00  1.2495137415607573e+00  1.1969130565792852e+00  -1.3179760094791406e-02  -1.1533440244424804e+00  -1.3089731997176917e+00  -1.7746629394082025e+00  -1.3035347663515462e+00  -1.1537144876817917e+00  -1.2682903198609371e-02  1.3703809207049819e-02  1.0226969893206914e+00  1.6141770685798065e+00  1.2992560245664928e+00  1.4074399302421630e+00  1.0154903120149861e+00  2.6662707860220465e-02  -9.6241138957824124e-01  -1.5934576103448450e+00  -1.2554139778139712e+00  -1.3992080938548208e+00  -1.1533752642707193e+00  1.3703809207049819e-02  3.7291304103712647e-02  8.6752240208746512e-01  9.5577310221054557e-01  1.1516659784812207e+00  1.1612588721494632e+00  7.0703660149876069e-01  -6.7904126655359581e-02  -8.5436933430525519e-01  -1.0200304473889099e+00  -1.1955513698674072e+00  -1.0215900675629213e+00  -6.9444293674291935e-01  3.7291304103712647e-02  5.9229927643280701e-02  6.6211245042046618e-02  -2.8246743761159862e-02  8.1446279412048708e-03  -2.1958541823345347e-03  -3.6627279137541172e-02  -6.9719367159916598e-02  -3.5856701165017088e-02  -1.2761985131502033e-02  2.2733952645075670e-03  -3.6195443031257588e-02  5.4011678462862284e-02  5.9229927643280701e-02  5.8477284358789246e-02  1.0731271656861953e-02  -4.4046757247856234e-02  -1.0022982187121415e-03  -6.8527141483419943e-02  -5.7066886178075510e-02  -3.4917582397089447e-02  -8.8911816862628744e-03  1.9145554625675715e-02  -5.4067530123256859e-03  4.3882599512449508e-02  8.9572814249270327e-02  5.8477284358789246e-02  -8.4923192097858865e-03  -6.4413771787972829e-01  -8.9348108144367167e-01  -9.8950891658022899e-01  -9.8740971167111669e-01  -6.7892020130142783e-01  -2.6000439468454331e-02  6.4475839589585004e-01  9.3197191081855169e-01  9.6549407027052636e-01  9.1488283150345540e-01  6.9531096480940224e-01  -8.4923192097858865e-03  -2.4851069237692369e-02  -9.3573195530623643e-01  -1.2031626903232795e+00  -1.3258744139167018e+00  -1.4138859424490202e+00  -8.0015242422714128e-01  4.8333089835736039e-02  8.8841032086280136e-01  1.1959310575295945e+00  1.3636829818179879e+00  1.3891633220703183e+00  8.5557033696293983e-01  -2.4851069237692369e-02  7.4452942314391247e-03  -9.6643071383193180e-01  -1.3648477631115465e+00  -1.5924488348722112e+00  -1.3134001978072400e+00  -9.8498385148007994e-01  6.8011885390322230e-03  9.7780235869114884e-01  1.3268166295484092e+00  1.5913915793568265e+00  1.2412630100934103e+00  1.0226797469381173e+00  7.4452942314391247e-03  -4.4342705514311125e-02  -9.2943955478991791e-01  -1.3842807059404014e+00  -1.2365855601942450e+00  -1.3407702584759404e+00  -1.0256485576016441e+00  7.3672434816122151e-02  9.8240195555831145e-01  1.3998141881720196e+00  1.3021090220236793e+00  1.3290971076701030e+00  8.7673146171677407e-01  -4.4342705514311125e-02  -8.5290944603047009e-02  -7.0124998026254659e-01  -8.5129674690219970e-01  -1.0179835144379197e+00  -8.7570795953067448e-01  -5.1274298783877481e-01  6.0515854682903256e-02  6.8126521747370805e-01  8.1016305732365934e-01  9.8830746119971058e-01  1.0228701160203171e+00  5.1924541142558078e-01  -8.5290944603047009e-02  -5.1718309432771843e-02  -2.9049625079563546e-03  1.8228749861975490e-02  -6.4853598743949891e-03  4.6188217787208663e-02  8.2752695789601996e-02  3.6546406440471850e-02  2.1618664074250640e-02  -4.3526156232390797e-02  -6.4951849540836716e-03  -7.3817682323466555e-02  -5.6844951394267644e-02  -5.1718309432771843e-02  -1.4052469561472419e-02  6.3502630295121065e-01  9.2912676191995358e-01  9.6751086154072219e-01  9.2678848937474001e-01  7.0649619946168707e-01  1.1994193390406534e-02  -6.4603981460698268e-01  -8.8395152169494873e-01  -9.7847469068351012e-01  -9.8205195487736452e-01  -6.8352153438486807e-01  -1.4052469561472419e-02  4.4953559691042810e-02  8.9398802629425111e-01  1.1966779416572473e+00  1.3660773972139335e+00  1.3882017154771484e+00  8.5151392241691826e-01  -3.0449162916064410e-02  -9.2845182659915038e-01  -1.2021495662076027e+00  -1.3261305585993286e+00  -1.3972637723792403e+00  -8.0157141978516022e-01  4.4953559691042810e-02  4.6146681810437951e-03  9.8616523573660209e-01  1.3261319086395340e+00  1.6025111532520451e+00  1.2316680849729686e+00  1.0265580968154859e+00  -6.8946879792509584e-04  -9.6520075816788109e-01  -1.3591914433265886e+00  -1.5957745496625761e+00  -1.3134917897053506e+00  -9.8474406972944539e-01  4.6146681810437951e-03  8.1089791497521879e-02  9.8478401034034291e-01  1.4037433467358849e+00  1.3079773619690553e+00  1.3372948219828853e+00  8.7955432679263634e-01  -5.2534430371106035e-02  -9.2146780205594014e-01  -1.3873691474666552e+00  -1.2448635204948248e+00  -1.3401078759586385e+00  -1.0331935304270314e+00  8.1089791497521879e-02  6.7490485792797830e-02  6.9283696854662014e-01  8.0021617692183689e-01  9.8520291138369476e-01  1.0283563103127247e+00  5.2240777779517766e-01  -7.5540591858831274e-02  -7.0970921240192064e-01  -8.4089654063264696e-01  -1.0066387498701967e+00  -8.7752904857046798e-01  -5.2424286256601171e-01  6.7490485792797830e-02  5.8477284358789246e-02  1.0731271656861953e-02  -4.4046757247856234e-02  -1.0022982187121415e-03  -6.8527141483419943e-02  -5.7066886178075510e-02  -3.4917582397089447e-02  -8.8911816862628744e-03  1.9145554625675715e-02  -5.4067530123256859e-03  4.3882599512449508e-02  8.9572814249270327e-02  5.8477284358789246e-02  1.0566001785710308e-02  2.1816067594786704e-02  -2.4431951034981837e-02  -3.1896388615353828e-02  -5.2215532843960154e-02  -4.3829620817838241e-02  -1.7965653510593531e-02  -4.3608291509335885e-04  3.4872880714015494e-02  1.4297127148105996e-02  4.6265920188124379e-02  5.1308763969736314e-03  1.0566001785710308e-02  1.8769862493891079e-02  -3.4732719493888070e-01  -5.3530746233876658e-01  -6.1967142929146457e-01  -5.9881813293812181e-01  -3.2556155361467881e-01  -1.2651879905606697e-02  3.3601743489193014e-01  5.3943256014021546e-01  6.5802287502564416e-01  5.8347796593097012e-01  3.3888735358799582e-01  1.8769862493891079e-02  -2.3589192341811456e-02  -5.4569901656814312e-01  -8.0372798133910583e-01  -9.7754393507540915e-01  -8.5286489819701128e-01  -4.3684975908158219e-01  1.5501294804000469e-02  5.3821503087489331e-01  8.0763540870999850e-01  9.8106852007946965e-01  8.2434454736443286e-01  4.6887373257491466e-01  -2.3589192341811456e-02  -2.0209551907240882e-02  -6.5171415505594799e-01  -9.8468114795413553e-01  -1.0438213737437478e+00  -9.1774525765927828e-01  -5.3158566917733729e-01  3.4295863989446958e-02  6.2187162104827909e-01  9.7545327679849447e-01  1.0389090986763019e+00  9.2050119712101330e-01  5.6286758151291383e-01  -2.0209551907240882e-02  -5.7334222172007059e-02  -5.7761664668685087e-01  -8.2261602027962233e-01  -9.1903524189768926e-01  -8.2590521721072740e-01  -5.0183643037646541e-01  5.8695103509702404e-02  6.0688297540222136e-01  8.5856617567426408e-01  9.1187475292773690e-01  8.1414266824178361e-01  4.7067330924020595e-01  -5.7334222172007059e-02  -1.6639744644327405e-02  -3.3957355688406421e-01  -4.7800385662587586e-01  -5.5873847820455003e-01  -4.5732704135685714e-01  -1.9307607233362803e-01  4.3585223847286872e-02  3.1244764328998997e-01  4.3687977471029504e-01  5.2690166275173800e-01  5.0607165242992236e-01  2.0212440120688180e-01  -1.6639744644327405e-02  -2.5848134563831039e-02  -6.3656608051100676e-03  3.1008683923637155e-02  1.8797784252325242e-02  5.6255098925976889e-02  1.8172445840926362e-02  2.3860202195510563e-02  1.7666499953614308e-02  -3.0082520080875821e-02  -3.4143303172075340e-02  -5.0419870276942683e-02  -4.6000929518111959e-02  -2.5848134563831039e-02  -1.5957333322997043e-02  3.3135915640302943e-01  5.3372544088188578e-01  6.6285478303990653e-01  5.8353954540924990e-01  3.4619713988994860e-01  1.5109698596767787e-02  -3.4185366781501453e-01  -5.3235695652473480e-01  -6.1037382924317729e-01  -6.0304563800292998e-01  -3.1630099372147896e-01  -1.5957333322997043e-02  2.5988443632748711e-02  5.2092883339012319e-01  8.0860670454456740e-01  9.7974043377366848e-01  8.1989464620810737e-01  4.6718997664354212e-01  -3.5219634724500938e-02  -5.4609110857268817e-01  -8.0577766783572946e-01  -9.6630581203095567e-01  -8.5126783961975006e-01  -4.3230863211916309e-01  2.5988443632748711e-02  3.4612599893137745e-02  6.2307125999537871e-01  9.7189408246717490e-01  1.0510951195199840e+00  9.1192669388485459e-01  5.5947705435460060e-01  -2.9063205829788091e-02  -6.5785292190244815e-01  -9.7669246134216137e-01  -1.0452411447638823e+00  -9.1268385082140124e-01  -5.3639801793368824e-01  3.4612599893137745e-02  5.2832295456192092e-02  6.0514009843232797e-01  8.5728125794332510e-01  9.1783089235969284e-01  8.3060801838313369e-01  4.5864230869947070e-01  -5.8205797879222608e-02  -5.7770848161105592e-01  -8.2458165701796426e-01  -9.1518756728847361e-01  -8.2870133301592985e-01  -5.0684727082397896e-01  5.2832295456192092e-02  5.1121723878446532e-02  3.0631533869378808e-01  4.3346861093940453e-01  5.3037887234380998e-01  5.1111305557140829e-01  2.0139895522643828e-01  -1.3039546196909675e-02  -3.3441394718624884e-01  -4.7107737071689143e-01  -5.6375555499917684e-01  -4.5972118928286576e-01  -2.0630904695316049e-01  5.1121723878446532e-02  1.0566001785710308e-02  2.1816067594786704e-02  -2.4431951034981837e-02  -3.1896388615353828e-02  -5.2215532843960154e-02  -4.3829620817838241e-02  -1.7965653510593531e-02  -4.3608291509335885e-04  3.4872880714015494e-02  1.4297127148105996e-02  4.6265920188124379e-02  5.1308763969736314e-03  1.0566001785710308e-02  6.9873342283224274e-03  -1.1936674212857011e-02  -1.3749260855971984e-02  -3.1133703292813065e-03  -1.4430423883436341e-02  -1.3016567421563568e-02  4.5209006408956643e-04  -2.8919670233103364e-03  1.6565115211094494e-02  3.3594238717905657e-02  1.8233826246635543e-02  1.1426363188027974e-02  6.9873342283224274e-03  -6.6933408820960194e-03  -5.3015910798903637e-02  -5.3808800321736266e-02  -5.8178262543899559e-02  -5.0041795663868911e-02  -3.5142600688842359e-03  1.8048946734553720e-02  5.6292023233359738e-02  8.6108165280090354e-02  4.3434454030010720e-02  4.2979656316259043e-03  1.0671171725412480e-02  -6.6933408820960194e-03  -2.4900941238521174e-02  -7.9936839875483584e-02  -8.3646978783599044e-02  -6.4590544560172922e-02  -3.2482134580992121e-04  3.7049060274349691e-02  2.0371150899848034e-02  2.8924417646073723e-02  8.5366160184928278e-02  6.2329821174815989e-02  -3.7141344307162624e-05  1.4404369952607403e-04  -2.4900941238521174e-02  -2.6948353235811275e-02  -5.1445720290537643e-02  -5.6017489943509038e-02  -7.6895266919424984e-03  6.3433536123503415e-02  5.4370792590850744e-02  -6.4941190009802571e-03  4.7753110183630966e-02  6.5482080147733102e-02  4.3387337348040874e-03  -5.2283990525695510e-02  -4.2131591755003389e-02  -2.6948353235811275e-02  -2.1058589691945209e-02  3.2267142404068909e-03  -3.8122040848250602e-03  5.3783617898687401e-02  1.0186041569393084e-01  4.3298980506022336e-02  1.8539861773213321e-02  5.1599244180575057e-02  -4.2452259501230757e-03  -5.6162162902875019e-02  -8.7793502613137037e-02  -7.9525012005831272e-02  -2.1058589691945209e-02  -1.4239656536250950e-02  -3.3568563512715640e-03  4.5027393498444255e-03  4.8497453032337060e-02  8.1680407159733681e-02  5.1013439192160101e-02  1.9655254999860820e-02  5.6803267726531961e-03  -4.7400087090121966e-02  -5.0218028532678323e-02  -5.3286327242838091e-02  -5.1022904544918174e-02  -1.4239656536250950e-02  5.3119341568533794e-04  1.2928424136061370e-02  2.4324440528424727e-02  2.5231898939753479e-02  2.5830721005277800e-02  6.3150538334833433e-03  6.6978045803717723e-03  -7.1056873257498050e-03  -1.7029579890235826e-02  7.2108657930047282e-03  -1.0416571470285026e-02  -2.9022935125787509e-02  5.3119341568533794e-04  1.3158195148321563e-02  4.7884435920762282e-02  7.8628478119947887e-02  4.9916630457650518e-02  7.5318645914618969e-03  2.7034106464080346e-03  -1.4236267775383769e-03  -5.0554485367048041e-02  -4.3371667491219748e-02  -3.7910221305919749e-02  -5.2252814258254315e-02  -1.4198156407047783e-03  1.3158195148321563e-02  4.8951707516064801e-03  4.7453921765641137e-02  8.4792100670438533e-02  5.0266999830451048e-02  -9.3696016782787266e-03  -6.8433681320781096e-03  -2.8166654528358936e-02  -8.1917474483416519e-02  -7.9931663820668658e-02  -6.4071135813670979e-02  3.6256888070915214e-03  4.7465027454834260e-02  4.8951707516064801e-03  -1.1244585948124570e-02  5.0845400793645287e-02  6.2903759059602576e-02  -3.1753822558868786e-03  -5.7129172306301913e-02  -5.7931586490960904e-02  -2.7205142486756682e-02  -4.5858297344327711e-02  -5.1238309372336671e-02  -1.9250547328976935e-03  7.6595767865837952e-02  4.7195126696436551e-02  -1.1244585948124570e-02  2.0000282262716954e-02  5.5069547873675677e-02  5.8748310773855967e-03  -5.9084017920233149e-02  -8.3753847544191920e-02  -8.2019403516724682e-02  -3.7494137709320058e-02  -1.9450489330337026e-04  -1.9719990782741548e-03  4.8604014296991058e-02  7.9082391039250438e-02  4.1869891849116714e-02  2.0000282262716954e-02  1.8970834397929608e-02  -3.5766504814567883e-03  -4.4964812297131132e-02  -4.2834994834843133e-02  -4.6199861756096409e-02  -5.4277617736690896e-02  -4.2729102399754982e-03  -1.6587552901497411e-04  1.2486256460928442e-02  3.1401700768227195e-02  8.4644675844386300e-02  4.8339054500897233e-02  1.8970834397929608e-02  6.9873342283224274e-03  -1.1936674212857011e-02  -1.3749260855971984e-02  -3.1133703292813065e-03  -1.4430423883436341e-02  -1.3016567421563568e-02  4.5209006408956643e-04  -2.8919670233103364e-03  1.6565115211094494e-02  3.3594238717905657e-02  1.8233826246635543e-02  1.1426363188027974e-02  6.9873342283224274e-03  -2.0364199051882571e-02  -4.1870076236872368e-02  -5.8852006412608807e-02  -3.4452049951329979e-02  -3.8042414164609385e-02  1.7643764110964157e-02  1.3953690608774679e-02  2.7976470723374700e-02  6.3884623867024343e-02  1.9174479974720351e-02  2.8112637445530806e-02  3.3247715433270658e-04  -2.0364199051882571e-02  -1.6289482202122053e-02  2.0028453798330914e-01  5.1423368627463717e-01  5.3074090632060511e-01  4.3987937345598088e-01  3.0779391509851500e-01  4.6118021940552124e-02  -2.0783478649734319e-01  -4.7456121126902101e-01  -5.7419708459700169e-01  -4.7564515116364381e-01  -3.3658601493993323e-01  -1.6289482202122053e-02  -5.3541528045947140e-02  4.5468011041467016e-01  8.3356364652159920e-01  9.1823700721780721e-01  8.5153538413908358e-01  6.0612996273280551e-01  5.4402822734342909e-02  -5.1357045048604122e-01  -8.2673723027624091e-01  -9.1613584584656038e-01  -8.1632816631363636e-01  -5.7285013973449816e-01  -5.3541528045947140e-02  -2.0731233600461273e-02  5.6770221188739800e-01  9.1165449577728763e-01  1.0518677260280773e+00  9.7118765990683376e-01  6.1974130675119998e-01  1.7132647782593612e-02  -5.3630307784481224e-01  -9.0930962966392936e-01  -1.0408176214843392e+00  -9.8169267937317151e-01  -6.4632283543642888e-01  -2.0731233600461273e-02  -1.6479733611665614e-02  4.7086839306707606e-01  8.2630518232637706e-01  9.9020548361378247e-01  7.9925355305952595e-01  5.2041652397964100e-01  2.1936242028970637e-02  -4.3585414603437200e-01  -8.6603398111832297e-01  -9.7241943149999654e-01  -8.0543562198339647e-01  -5.4099572538505680e-01  -1.6479733611665614e-02  1.1909959557687200e-02  3.3668985276857222e-01  5.7694556525792151e-01  6.4625116794126480e-01  5.3846009508639836e-01  3.2783776954248961e-01  2.9736539345827899e-04  -3.1454676106283025e-01  -6.1386479035029784e-01  -6.2476272207823380e-01  -5.2225906672785927e-01  -3.4812662375618808e-01  1.1909959557687200e-02  1.6745045366218524e-02  2.7191238588394243e-02  4.8903316815971050e-02  1.6568742224508430e-02  3.8333451107901470e-02  -7.9700036063901185e-03  -9.6247191344309684e-03  -4.5061318636027470e-02  -3.0451675603771253e-02  -1.3265686225809746e-02  -1.1590265422200045e-02  5.7783887810531412e-03  1.6745045366218524e-02  4.6160627859398992e-02  -2.0330808945549389e-01  -4.6681843993677113e-01  -5.6866012041619785e-01  -4.7446934277638503e-01  -3.3950695326515734e-01  -2.5412964117073403e-02  2.2241331333136735e-01  5.1705757314967093e-01  5.4401619982654470e-01  4.3219721349008067e-01  2.9776521370482206e-01  4.6160627859398992e-02  4.8410186650094424e-02  -5.0693013437862655e-01  -8.2654706585486781e-01  -9.1533407815562073e-01  -8.2975698631817241e-01  -5.7941130645701722e-01  -5.5606932915598171e-02  4.7650508227551996e-01  8.3244001885412811e-01  9.2522223287938965e-01  8.5119052304166221e-01  6.0590981634765329e-01  4.8410186650094424e-02  2.2258594883397025e-02  -5.3009073824474739e-01  -9.2857446015126355e-01  -1.0397334097458963e+00  -9.9235916132006496e-01  -6.6099395597399346e-01  -1.9636217841918626e-02  5.6960664585505738e-01  9.1226353591784903e-01  1.0589989315453068e+00  9.8337185780696390e-01  6.2396741103093800e-01  2.2258594883397025e-02  1.1331843975304774e-02  -4.3880576399534049e-01  -8.4781948902240412e-01  -9.6368699817992454e-01  -8.0244787913188664e-01  -5.5021945257750404e-01  -2.9313034