<?xml version="1.0"?>
<VTKFile type="UnstructuredGrid"  version="0.1"  >
<UnstructuredGrid>
<Piece  NumberOfPoints="2197" NumberOfCells="10368">
<Points>
<DataArray  type="Float64"  NumberOfComponents="3"  format="ascii">-3.141592653589793 -3.141592653589793 -3.141592653589793  -2.617993877991494 -3.141592653589793 -3.141592653589793  -2.094395102393196 -3.141592653589793 -3.141592653589793  -1.570796326794897 -3.141592653589793 -3.141592653589793  -1.047197551196598 -3.141592653589793 -3.141592653589793  -0.5235987755982987 -3.141592653589793 -3.141592653589793  0 -3.141592653589793 -3.141592653589793  0.5235987755982987 -3.141592653589793 -3.141592653589793  1.047197551196597 -3.141592653589793 -3.141592653589793  1.570796326794897 -3.141592653589793 -3.141592653589793  2.094395102393196 -3.141592653589793 -3.141592653589793  2.617993877991494 -3.141592653589793 -3.141592653589793  3.141592653589793 -3.141592653589793 -3.141592653589793  -3.141592653589793 -2.617993877991494 -3.141592653589793  -2.617993877991494 -2.617993877991494 -3.141592653589793  -2.094395102393196 -2.617993877991494 -3.141592653589793  -1.570796326794897 -2.617993877991494 -3.141592653589793  -1.047197551196598 -2.617993877991494 -3.141592653589793  -0.5235987755982987 -2.617993877991494 -3.141592653589793  0 -2.617993877991494 -3.141592653589793  0.5235987755982987 -2.617993877991494 -3.141592653589793  1.047197551196597 -2.617993877991494 -3.141592653589793  1.570796326794897 -2.617993877991494 -3.141592653589793  2.094395102393196 -2.617993877991494 -3.141592653589793  2.617993877991494 -2.617993877991494 -3.141592653589793  3.141592653589793 -2.617993877991494 -3.141592653589793  -3.141592653589793 -2.094395102393196 -3.141592653589793  -2.617993877991494 -2.094395102393196 -3.141592653589793  -2.094395102393196 -2.094395102393196 -3.141592653589793  -1.570796326794897 -2.094395102393196 -3.141592653589793  -1.047197551196598 -2.094395102393196 -3.141592653589793  -0.5235987755982987 -2.094395102393196 -3.141592653589793  0 -2.094395102393196 -3.141592653589793  0.5235987755982987 -2.094395102393196 -3.141592653589793  1.047197551196597 -2.094395102393196 -3.141592653589793  1.570796326794897 -2.094395102393196 -3.141592653589793  2.094395102393196 -2.094395102393196 -3.141592653589793  2.617993877991494 -2.094395102393196 -3.141592653589793  3.141592653589793 -2.094395102393196 -3.141592653589793  -3.141592653589793 -1.570796326794897 -3.141592653589793  -2.617993877991494 -1.570796326794897 -3.141592653589793  -2.094395102393196 -1.570796326794897 -3.141592653589793  -1.570796326794897 -1.570796326794897 -3.141592653589793  -1.047197551196598 -1.570796326794897 -3.141592653589793  -0.5235987755982987 -1.570796326794897 -3.141592653589793  0 -1.570796326794897 -3.141592653589793  0.5235987755982987 -1.570796326794897 -3.141592653589793  1.047197551196597 -1.570796326794897 -3.141592653589793  1.570796326794897 -1.570796326794897 -3.141592653589793  2.094395102393196 -1.570796326794897 -3.141592653589793  2.617993877991494 -1.570796326794897 -3.141592653589793  3.141592653589793 -1.570796326794897 -3.141592653589793  -3.141592653589793 -1.047197551196598 -3.141592653589793  -2.617993877991494 -1.047197551196598 -3.141592653589793  -2.094395102393196 -1.047197551196598 -3.141592653589793  -1.570796326794897 -1.047197551196598 -3.141592653589793  -1.047197551196598 -1.047197551196598 -3.141592653589793  -0.5235987755982987 -1.047197551196598 -3.141592653589793  0 -1.047197551196598 -3.141592653589793  0.5235987755982987 -1.047197551196598 -3.141592653589793  1.047197551196597 -1.047197551196598 -3.141592653589793  1.570796326794897 -1.047197551196598 -3.141592653589793  2.094395102393196 -1.047197551196598 -3.141592653589793  2.617993877991494 -1.047197551196598 -3.141592653589793  3.141592653589793 -1.047197551196598 -3.141592653589793  -3.141592653589793 -0.5235987755982987 -3.141592653589793  -2.617993877991494 -0.5235987755982987 -3.141592653589793  -2.094395102393196 -0.5235987755982987 -3.141592653589793  -1.570796326794897 -0.5235987755982987 -3.141592653589793  -1.047197551196598 -0.5235987755982987 -3.141592653589793  -0.5235987755982987 -0.5235987755982987 -3.141592653589793  0 -0.5235987755982987 -3.141592653589793  0.5235987755982987 -0.5235987755982987 -3.141592653589793  1.047197551196597 -0.5235987755982987 -3.141592653589793  1.570796326794897 -0.5235987755982987 -3.141592653589793  2.094395102393196 -0.5235987755982987 -3.141592653589793  2.617993877991494 -0.5235987755982987 -3.141592653589793  3.141592653589793 -0.5235987755982987 -3.141592653589793  -3.141592653589793 0 -3.141592653589793  -2.617993877991494 0 -3.141592653589793  -2.094395102393196 0 -3.141592653589793  -1.570796326794897 0 -3.141592653589793  -1.047197551196598 0 -3.141592653589793  -0.5235987755982987 0 -3.141592653589793  0 0 -3.141592653589793  0.5235987755982987 0 -3.141592653589793  1.047197551196597 0 -3.141592653589793  1.570796326794897 0 -3.141592653589793  2.094395102393196 0 -3.141592653589793  2.617993877991494 0 -3.141592653589793  3.141592653589793 0 -3.141592653589793  -3.141592653589793 0.5235987755982987 -3.141592653589793  -2.617993877991494 0.5235987755982987 -3.141592653589793  -2.094395102393196 0.5235987755982987 -3.141592653589793  -1.570796326794897 0.5235987755982987 -3.141592653589793  -1.047197551196598 0.5235987755982987 -3.141592653589793  -0.5235987755982987 0.5235987755982987 -3.141592653589793  0 0.5235987755982987 -3.141592653589793  0.5235987755982987 0.5235987755982987 -3.141592653589793  1.047197551196597 0.5235987755982987 -3.141592653589793  1.570796326794897 0.5235987755982987 -3.141592653589793  2.094395102393196 0.5235987755982987 -3.141592653589793  2.617993877991494 0.5235987755982987 -3.141592653589793  3.141592653589793 0.5235987755982987 -3.141592653589793  -3.141592653589793 1.047197551196597 -3.141592653589793  -2.617993877991494 1.047197551196597 -3.141592653589793  -2.094395102393196 1.047197551196597 -3.141592653589793  -1.570796326794897 1.047197551196597 -3.141592653589793  -1.047197551196598 1.047197551196597 -3.141592653589793  -0.5235987755982987 1.047197551196597 -3.141592653589793  0 1.047197551196597 -3.141592653589793  0.5235987755982987 1.047197551196597 -3.141592653589793  1.047197551196597 1.047197551196597 -3.141592653589793  1.570796326794897 1.047197551196597 -3.141592653589793  2.094395102393196 1.047197551196597 -3.141592653589793  2.617993877991494 1.047197551196597 -3.141592653589793  3.141592653589793 1.047197551196597 -3.141592653589793  -3.141592653589793 1.570796326794897 -3.141592653589793  -2.617993877991494 1.570796326794897 -3.141592653589793  -2.094395102393196 1.570796326794897 -3.141592653589793  -1.570796326794897 1.570796326794897 -3.141592653589793  -1.047197551196598 1.570796326794897 -3.141592653589793  -0.5235987755982987 1.570796326794897 -3.141592653589793  0 1.570796326794897 -3.141592653589793  0.5235987755982987 1.570796326794897 -3.141592653589793  1.047197551196597 1.570796326794897 -3.141592653589793  1.570796326794897 1.570796326794897 -3.141592653589793  2.094395102393196 1.570796326794897 -3.141592653589793  2.617993877991494 1.570796326794897 -3.141592653589793  3.141592653589793 1.570796326794897 -3.141592653589793  -3.141592653589793 2.094395102393196 -3.141592653589793  -2.617993877991494 2.094395102393196 -3.141592653589793  -2.094395102393196 2.094395102393196 -3.141592653589793  -1.570796326794897 2.094395102393196 -3.141592653589793  -1.047197551196598 2.094395102393196 -3.141592653589793  -0.5235987755982987 2.094395102393196 -3.141592653589793  0 2.094395102393196 -3.141592653589793  0.5235987755982987 2.094395102393196 -3.141592653589793  1.047197551196597 2.094395102393196 -3.141592653589793  1.570796326794897 2.094395102393196 -3.141592653589793  2.094395102393196 2.094395102393196 -3.141592653589793  2.617993877991494 2.094395102393196 -3.141592653589793  3.141592653589793 2.094395102393196 -3.141592653589793  -3.141592653589793 2.617993877991494 -3.141592653589793  -2.617993877991494 2.617993877991494 -3.141592653589793  -2.094395102393196 2.617993877991494 -3.141592653589793  -1.570796326794897 2.617993877991494 -3.141592653589793  -1.047197551196598 2.617993877991494 -3.141592653589793  -0.5235987755982987 2.617993877991494 -3.141592653589793  0 2.617993877991494 -3.141592653589793  0.5235987755982987 2.617993877991494 -3.141592653589793  1.047197551196597 2.617993877991494 -3.141592653589793  1.570796326794897 2.617993877991494 -3.141592653589793  2.094395102393196 2.617993877991494 -3.141592653589793  2.617993877991494 2.617993877991494 -3.141592653589793  3.141592653589793 2.617993877991494 -3.141592653589793  -3.141592653589793 3.141592653589793 -3.141592653589793  -2.617993877991494 3.141592653589793 -3.141592653589793  -2.094395102393196 3.141592653589793 -3.141592653589793  -1.570796326794897 3.141592653589793 -3.141592653589793  -1.047197551196598 3.141592653589793 -3.141592653589793  -0.5235987755982987 3.141592653589793 -3.141592653589793  0 3.141592653589793 -3.141592653589793  0.5235987755982987 3.141592653589793 -3.141592653589793  1.047197551196597 3.141592653589793 -3.141592653589793  1.570796326794897 3.141592653589793 -3.141592653589793  2.094395102393196 3.141592653589793 -3.141592653589793  2.617993877991494 3.141592653589793 -3.141592653589793  3.141592653589793 3.141592653589793 -3.141592653589793  -3.141592653589793 -3.141592653589793 -2.617993877991494  -2.617993877991494 -3.141592653589793 -2.617993877991494  -2.094395102393196 -3.141592653589793 -2.617993877991494  -1.570796326794897 -3.141592653589793 -2.617993877991494  -1.047197551196598 -3.141592653589793 -2.617993877991494  -0.5235987755982987 -3.141592653589793 -2.617993877991494  0 -3.141592653589793 -2.617993877991494  0.5235987755982987 -3.141592653589793 -2.617993877991494  1.047197551196597 -3.141592653589793 -2.617993877991494  1.570796326794897 
[...]
<PointData  Scalars="f_258268"> 
<DataArray  type="Float64"  Name="f_258268"  format="ascii">5.9864101205177093e-02  6.6362866777970514e-02  -2.7269178433479108e-02  7.4727874134208009e-03  -1.8884937333048849e-03  -3.6969724110358620e-02  -7.0080785899756262e-02  -3.5873114531173769e-02  -1.2826091193054504e-02  1.8473044341892604e-03  -3.5382913898569776e-02  5.4321375389879037e-02  5.9864101205177093e-02  4.8313119402820986e-02  -7.0779105267420950e-01  -1.0319152566459562e+00  -1.1910763133420017e+00  -1.0258703414529984e+00  -8.5792967322852376e-01  -5.8818569070760468e-02  6.9419790450423480e-01  1.1548145027360670e+00  1.1508999994357589e+00  9.5916900242633218e-01  8.4648814905415104e-01  4.8313119402820986e-02  7.8844419314476506e-03  -1.1581948738167733e+00  -1.4020660747635374e+00  -1.2626018905500263e+00  -1.6074204455661290e+00  -9.5527914291551386e-01  3.3270354092918973e-02  1.0199462179107293e+00  1.4093273629050951e+00  1.3171047804484088e+00  1.6147615079037789e+00  1.0201793971950510e+00  7.8844419314476506e-03  -1.2503650618784655e-02  -1.1405225602795668e+00  -1.3303681346441802e+00  -1.7849871158590676e+00  -1.3178180657279623e+00  -1.1470007457257154e+00  -9.8879742404486340e-03  1.1976053631601247e+00  1.2632669780215273e+00  1.7708022888786494e+00  1.2591759355004690e+00  1.1956172899100694e+00  -1.2503650618784655e-02  3.1206519963325491e-02  -9.5371027264824160e-01  -1.6185875474911215e+00  -1.2603578559703112e+00  -1.4033008689462794e+00  -1.1595987666376659e+00  1.0329280910861697e-02  1.0313065036428770e+00  1.6150702800441099e+00  1.3080911347649160e+00  1.4020111340919190e+00  1.0173303639756681e+00  3.1206519963325491e-02  -5.4157038603979066e-02  -8.6497913170936169e-01  -1.0182233346007783e+00  -1.1970656024690278e+00  -1.0182482461559847e+00  -6.9176034853815527e-01  4.4779059176201702e-02  8.5681562163801062e-01  9.5581540877900961e-01  1.1410505233843233e+00  1.1528617570667832e+00  6.9419704359985468e-01  -5.4157038603979066e-02  -4.4932960528765116e-02  -3.9539860530628246e-02  -1.1296282719145805e-02  1.4071164523749787e-02  -2.3969093564862848e-02  5.6027922312706480e-02  5.0354070612049953e-02  5.7409982238550560e-02  -3.2060931969074995e-02  8.3443826097430538e-03  -1.2304231980300168e-02  -5.3709492435782165e-02  -4.4932960528765116e-02  -6.4087627283833312e-02  6.9511798241787059e-01  1.1561639809041537e+00  1.1498111742067560e+00  9.6387430788558082e-01  8.5692647163930391e-01  3.7772933662247071e-02  -6.9214533373164011e-01  -1.0253809759598449e+00  -1.1865386710797088e+00  -1.0238008969860757e+00  -8.4635384606530062e-01  -6.4087627283833312e-02  2.8192794826942983e-02  1.0296949810427254e+00  1.4055069503205866e+00  1.3152553465112973e+00  1.6153500372306437e+00  1.0220595530970615e+00  6.7615576005810368e-03  -1.1610952883757291e+00  -1.4036319707726390e+00  -1.2669625163384532e+00  -1.6096031419033952e+00  -9.5521362825459699e-01  2.8192794826942983e-02  -1.2307254135492687e-02  1.2030760397908353e+00  1.2693713043088279e+00  1.7841055110920057e+00  1.2623318232723337e+00  1.1904325850498312e+00  -1.2539072376326501e-02  -1.1486328679831799e+00  -1.3208544465342718e+00  -1.7794833301404709e+00  -1.3154191888483042e+00  -1.1490849168615984e+00  -1.2307254135492687e-02  1.3470192577582854e-02  1.0245917916325202e+00  1.6151034611322055e+00  1.3111005268158191e+00  1.4089690953135008e+00  1.0146220095676690e+00  2.5943561169100751e-02  -9.6312120755275854e-01  -1.5943307241699809e+00  -1.2680259378297269e+00  -1.4008248723829262e+00  -1.1511777311962454e+00  1.3470192577582854e-02  3.7240206390341750e-02  8.6148971873704150e-01  9.5646725119098341e-01  1.1469892249716609e+00  1.1590462015488849e+00  7.0462207079896699e-01  -6.8149897339773904e-02  -8.4848673145242715e-01  -1.0218521735892698e+00  -1.1893492502545926e+00  -1.0207713157865652e+00  -6.9185650273745536e-01  3.7240206390341750e-02  5.9864101205177093e-02  6.6362866777970514e-02  -2.7269178433479108e-02  7.4727874134208009e-03  -1.8884937333048849e-03  -3.6969724110358620e-02  -7.0080785899756262e-02  -3.5873114531173769e-02  -1.2826091193054504e-02  1.8473044341892604e-03  -3.5382913898569776e-02  5.4321375389879037e-02  5.9864101205177093e-02  5.8517826353277104e-02  1.1315362157620740e-02  -4.3378777262733911e-02  -1.6674139285796923e-03  -6.7480294466031390e-02  -5.7396004885143979e-02  -3.5215409941542271e-02  -9.2493222485770677e-03  1.9542414407001576e-02  -4.6904227535185146e-03  4.4101691520356680e-02  8.9069540404055222e-02  5.8517826353277104e-02  -7.8601540265932496e-03  -6.4125657236942291e-01  -8.9158076840360567e-01  -9.8651467836679929e-01  -9.8677300305073401e-01  -6.7449817179408811e-01  -2.6426278538762671e-02  6.4172894446632966e-01  9.2952047775117208e-01  9.6432281457569691e-01  9.1351049371170634e-01  6.9071492039967108e-01  -7.8601540265932496e-03  -2.5153938650903596e-02  -9.3308853799390801e-01  -1.2059277614708683e+00  -1.3337336907998545e+00  -1.4141482938019809e+00  -7.9979013180899272e-01  4.7556302893075122e-02  8.8669919522941287e-01  1.1986955428552231e+00  1.3687656945365938e+00  1.3903773733600726e+00  8.5629701644514655e-01  -2.5153938650903596e-02  6.6231063342640983e-03  -9.6527035373126868e-01  -1.3698387315003828e+00  -1.5960554981782165e+00  -1.3192909036869223e+00  -9.8136739749688939e-01  7.5493343246873530e-03  9.7488764378318593e-01  1.3346500557728975e+00  1.5950465216031793e+00  1.2481305504988927e+00  1.0187154376935361e+00  6.6231063342640983e-03  -4.4484551556587239e-02  -9.2801847238183555e-01  -1.3856937978915929e+00  -1.2434600708834620e+00  -1.3408958091739918e+00  -1.0221994867289392e+00  7.2726083876482231e-02  9.8164734591114355e-01  1.4003163500678353e+00  1.3078897144394843e+00  1.3291994806789151e+00  8.7589497283676643e-01  -4.4484551556587239e-02  -8.4893429712543725e-02  -6.9657146332785169e-01  -8.5198029148543508e-01  -1.0140493987522232e+00  -8.7487506339752741e-01  -5.1101953914756637e-01  6.0659504145461896e-02  6.7692734270032529e-01  8.0964431360856015e-01  9.8472774009560493e-01  1.0196866873651278e+00  5.1730232891246120e-01  -8.4893429712543725e-02  -5.1856433753983390e-02  -3.1416162957656119e-03  1.8544558198781032e-02  -5.6759096487256060e-03  4.6319526143890725e-02  8.2352862245985800e-02  3.7043908519415442e-02  2.2010219527031392e-02  -4.2783594530214235e-02  -7.2341778358032882e-03  -7.2784891370821420e-02  -5.7078212944682724e-02  -5.1856433753983390e-02  -1.4614403930182743e-02  6.3214363831342835e-01  9.2658134292988670e-01  9.6642156499944809e-01  9.2540162490173650e-01  7.0169869342007385e-01  1.2109215124620896e-02  -6.4310196967489464e-01  -8.8225439905978797e-01  -9.7557508397321901e-01  -9.8136360118901234e-01  -6.7921248855164329e-01  -1.4614403930182743e-02  4.4289640442553763e-02  8.9220540590089159e-01  1.1994244797033775e+00  1.3712011338890673e+00  1.3894378354498382e+00  8.5224215620876376e-01  -3.0670977886775381e-02  -9.2591429324592289e-01  -1.2048334073852229e+00  -1.3340087348233600e+00  -1.3975671571852797e+00  -8.0120400840437100e-01  4.4289640442553763e-02  5.2684056971341858e-03  9.8323987389534739e-01  1.3339424966011746e+00  1.6060225324505502e+00  1.2385646441434210e+00  1.0225362294188793e+00  -1.5041872070004048e-03  -9.6409200420320795e-01  -1.3642340084463096e+00  -1.5993512677787518e+00  -1.3192979470848702e+00  -9.8114102108785617e-01  5.2684056971341858e-03  7.9985037211807247e-02  9.8399614106582056e-01  1.4042376546455801e+00  1.3137185252586394e+00  1.3374459281924940e+00  8.7865996879354380e-01  -5.2560766303585783e-02  -9.2011422786971742e-01  -1.3885881081242510e+00  -1.2517826898570774e+00  -1.3401709358160170e+00  -1.0297799981773692e+00  7.9985037211807247e-02  6.7574087081338038e-02  6.8852268160184238e-01  7.9972130848010847e-01  9.8158759769660009e-01  1.0248775656793583e+00  5.2054500435305229e-01  -7.5177434509908256e-02  -7.0498030512682541e-01  -8.4155810618180382e-01  -1.0028176963649043e+00  -8.7673281612548382e-01  -5.2227998450106849e-01  6.7574087081338038e-02  5.8517826353277104e-02  1.1315362157620740e-02  -4.3378777262733911e-02  -1.6674139285796923e-03  -6.7480294466031390e-02  -5.7396004885143979e-02  -3.5215409941542271e-02  -9.2493222485770677e-03  1.9542414407001576e-02  -4.6904227535185146e-03  4.4101691520356680e-02  8.9069540404055222e-02  5.8517826353277104e-02  1.0939182148005185e-02  2.1487685530540347e-02  -2.4104371512142241e-02  -3.2192023850427853e-02  -5.1331787909454578e-02  -4.4595993492175155e-02  -1.8248347644855605e-02  -1.4810250266061669e-04  3.4597074725917880e-02  1.5127958909990951e-02  4.6162587754138930e-02  6.0105641345006549e-03  1.0939182148005185e-02  1.8344883770401006e-02  -3.4595919453070501e-01  -5.3425773117842978e-01  -6.1914552088505015e-01  -5.9612904050771853e-01  -3.2473314424738792e-01  -1.2378535380473990e-02  3.3469807487403974e-01  5.3836849736998060e-01  6.5595989085962303e-01  5.8149638906531398e-01  3.3776244630562330e-01  1.8344883770401006e-02  -2.3392783501913841e-02  -5.4460078128266332e-01  -8.0522607970372739e-01  -9.7734078781705369e-01  -8.5168442251770382e-01  -4.3684825189845611e-01  1.5300197580713912e-02  5.3732864657979451e-01  8.0891887490950420e-01  9.8023189794459720e-01  8.2440120727452815e-01  4.6872053095456323e-01  -2.3392783501913841e-02  -2.1115276629945494e-02  -6.4957092260430216e-01  -9.8383613816107862e-01  -1.0440099538286687e+00  -9.1637792053380607e-01  -5.3177077897981351e-01  3.4462210704584884e-02  6.2124428633552198e-01  9.7536388996598167e-01  1.0391054905414328e+00  9.1969935921548229e-01  5.6137246891882853e-01  -2.1115276629945494e-02  -5.7096527499069079e-02  -5.7581500194105939e-01  -8.2269688205687885e-01  -9.1827307818024129e-01  -8.2423303260847958e-01  -4.9990629007931386e-01  5.7870798485882079e-02  6.0421579286824678e-01  8.5728540184932289e-01  9.1063544326270229e-01  8.1263427769782981e-01  4.6985221917224285e-01  -5.7096527499069079e-02  -1.7426007027576993e-02  -3.3842264941259337e-01  -4.7780322605420278e-01  -5.5715338633442046e-01  -4.5672420988803231e-01  -1.9337014201691646e-01  4.4281074175173421e-02  3.1176735891413959e-01  4.3687411794237063e-01  5.2715171109001446e-01  5.0404365382730165e-01  2.0228820150795065e-01  -1.7426007027576993e-02  -2.6017152667809591e-02  -6.0077066242232432e-03  3.0703219852572093e-02  1.9687965062757867e-02  5.5975734010474745e-02  1.9049254339983342e-02  2.4018800087690539e-02  1.7301278766756682e-02  -2.9735456577474090e-02  -3.4384347799779301e-02  -4.9639310868102700e-02  -4.6666975786189641e-02  -2.6017152667809591e-02  -1.5686136976897275e-02  3.3010432523490935e-01  5.3271766397292586e-01  6.6070342958328510e-01  5.8165996316713942e-01  3.4497252553120844e-01  1.4727728861850633e-02  -3.4045331309052024e-01  -5.3152976016490949e-01  -6.0975778529378477e-01  -6.0038380821196280e-01  -3.1554756370142284e-01  -1.5686136976897275e-02  2.5730242961125280e-02  5.2005922609691724e-01  8.0999388664087080e-01  9.7890450835092091e-01  8.1990114426385752e-01  4.6705420770973460e-01  -3.4839153941221397e-02  -5.4502589335924234e-01  -8.0710176877996709e-01  -9.6632861032770956e-01  -8.5000153328392913e-01  -4.3239414948716648e-01  2.5730242961125280e-02  3.4899377508089607e-02  6.2237111643840770e-01  9.7180926891517339e-01  1.0511603093698383e+00  9.1130807844503692e-01  5.5793606297217502e-01  -2.9932638769295375e-02  -6.5573001823335775e-01  -9.7598917105876670e-01  -1.0453686608285955e+00  -9.1139662268737609e-01  -5.3655378282292421e-01  3.4899377508089607e-02  5.1941329644746063e-02  6.0250430562992918e-01  8.5592649089460882e-01  9.1645537500086938e-01  8.2899109340215671e-01  4.5799858940854321e-01  -5.7929339196705128e-02  -5.7577501075220328e-01  -8.2459596231901533e-01  -9.1446434966920531e-01  -8.2695841866737152e-01  -5.0482617268201480e-01  5.1941329644746063e-02  5.1779409568527737e-02  3.0559579841853862e-01  4.3363883345216964e-01  5.3061018593886411e-01  5.0895251525557028e-01  2.0161981394444700e-01  -1.3802423153928805e-02  -3.3338515211104136e-01  -4.7096964432696770e-01  -5.6204958016311846e-01  -4.5905474301673133e-01  -2.0657098668031140e-01  5.1779409568527737e-02  1.0939182148005185e-02  2.1487685530540347e-02  -2.4104371512142241e-02  -3.2192023850427853e-02  -5.1331787909454578e-02  -4.4595993492175155e-02  -1.8248347644855605e-02  -1.4810250266061669e-04  3.4597074725917880e-02  1.5127958909990951e-02  4.6162587754138930e-02  6.0105641345006549e-03  1.0939182148005185e-02  6.9576987576301938e-03  -1.2200353790050677e-02  -1.4511620735843458e-02  -4.5435490157330147e-03  -1.5242548980325628e-02  -1.3311941751605749e-02  4.2733211476019830e-04  -2.4097853176937071e-03  1.7210881456331050e-02  3.4356757557686302e-02  1.8747350114522651e-02  1.1847819089176325e-02  6.9576987576301938e-03  -7.1090827975798685e-03  -5.2711070324939498e-02  -5.4157308260880020e-02  -5.7748668182027618e-02  -4.8896741400960890e-02  -3.4856757183239183e-03  1.8268209984829746e-02  5.5979257400908596e-02  8.5192448178037242e-02  4.3207062248641272e-02  4.7004074905173908e-03  1.0593138125767161e-02  -7.1090827975798685e-03  -2.5496329170396102e-02  -7.9081973512300702e-02  -8.2720614885740493e-02  -6.3575938760418574e-02  -3.4297329717402752e-04  3.6049872963419202e-02  2.1097903191371906e-02  2.9520913540066626e-02  8.4499041184959794e-02  6.1555935326673882e-02  -9.6348711646336647e-05  -1.9960323799682149e-04  -2.5496329170396102e-02  -2.7799039440294538e-02  -5.1175274197553688e-02  -5.5321996707084486e-02  -7.5976978881778165e-03  6.2410273992118875e-02  5.4013014618004736e-02  -5.0316465241419276e-03  4.7409615415119080e-02  6.4453216125375343e-02  4.2587334862626766e-03  -5.1648611129410459e-02  -4.2019011229363523e-02  -2.7799039440294538e-02  -2.1573631389281863e-02  2.7591928508230836e-03  -3.8297540372078053e-03  5.3133521773292391e-02  1.0075173552656853e-01  4.3751910068753987e-02  1.9343357718009567e-02  5.0351081081174399e-02  -4.1631993957901795e-03  -5.5198750212069068e-02  -8.6832894573681318e-02  -7.8670919105636658e-02  -2.1573631389281863e-02  -1.4667437030887773e-02  -3.3468040350110935e-03  4.8990252319618633e-03  4.8294577974980629e-02  8.0858960169521585e-02  5.0741322922105807e-02  1.9884736314765672e-02  5.6544004369597761e-03  -4.6275923620493160e-02  -4.9866674360635334e-02  -5.3632539584759213e-02  -5.0753844020087806e-02  -1.4667437030887773e-02  6.0448285654494190e-04  1.3333872911890188e-02  2.4830532913234171e-02  2.6056272192395046e-02  2.6370216480367806e-02  6.7308951412020481e-03  6.5882635233767426e-03  -7.4484391101030068e-03  -1.7762531941502728e-02  5.6501423541489319e-03  -1.1219451673236831e-02  -2.9172704801974439e-02  6.0448285654494190e-04  1.3380766150832194e-02  4.7632251552745739e-02  7.7771096022909950e-02  4.9801616703430356e-02  7.8260391784743706e-03  2.7120963140908863e-03  -1.8767250288590964e-03  -5.0260740351908542e-02  -4.3869631405457292e-02  -3.7642968123833713e-02  -5.1091069598410248e-02  -1.3239413042556351e-03  1.3380766150832194e-02  5.8266783064558252e-03  4.7756302648341097e-02  8.3923387103599908e-02  4.9616459003898064e-02  -9.2961166122440559e-03  -7.1788221360972434e-03  -2.8785079621070447e-02  -8.1158543747244849e-02  -7.9052725438031976e-02  -6.3074318045211852e-02  3.6288412888618995e-03  4.6308445747252729e-02  5.8266783064558252e-03  -9.7434508031524012e-03  5.0456091768119181e-02  6.1891256096876478e-02  -3.1374958770772955e-03  -5.6405191794300709e-02  -5.7681739208656102e-02  -2.7877782313345444e-02  -4.5730654700073536e-02  -5.0543070787428750e-02  -1.8594947012548471e-03  7.5392634204263800e-02  4.6910262367503792e-02  -9.7434508031524012e-03  2.0748314236038706e-02  5.3897459115554186e-02  5.7891473152642927e-03  -5.8104107704402518e-02  -8.2874575270015322e-02  -8.1153971964757127e-02  -3.7976894553906515e-02  -5.2148033748093670e-04  -1.9924872217550889e-03  4.8120498157159373e-02  7.8237674154297457e-02  4.2308872618407024e-02  2.0748314236038706e-02  1.9201792784245643e-02  -3.5759723093937560e-03  -4.3815165467180492e-02  -4.2559604952482809e-02  -4.6590112449682433e-02  -5.3947927972796864e-02  -4.7250205465928126e-03  -1.8247286614576089e-04  1.2813604475722011e-02  3.1364782209418435e-02  8.3761560164013621e-02  4.8041186278483368e-02  1.9201792784245643e-02  6.9576987576301938e-03  -1.2200353790050677e-02  -1.4511620735843458e-02  -4.5435490157330147e-03  -1.5242548980325628e-02  -1.3311941751605749e-02  4.2733211476019830e-04  -2.4097853176937071e-03  1.7210881456331050e-02  3.4356757557686302e-02  1.8747350114522651e-02  1.1847819089176325e-02  6.9576987576301938e-03  -2.0601409957594179e-02  -4.2504919846191175e-02  -5.8046496262528953e-02  -3.4652994752034781e-02  -3.7607887302819429e-02  1.7349678771166659e-02  1.4151031963716814e-02  2.8696071493038586e-02  6.3552550314854225e-02  2.0172116611851126e-02  2.7821758581847898e-02  6.7815897690603479e-04  -2.0601409957594179e-02  -1.7115697833313299e-02  2.0052426264319009e-01  5.1205926095775545e-01  5.3092995928252706e-01  4.3988245575751178e-01  3.0708824149940778e-01  4.6859811419912738e-02  -2.0802361240882203e-01  -4.7366433532096369e-01  -5.7259535662932515e-01  -4.7531557717372869e-01  -3.3551759476576681e-01  -1.7115697833313299e-02  -5.3228724853015406e-02  4.5404393370563795e-01  8.3186048182699335e-01  9.1689162963460225e-01  8.5039303787053999e-01  6.0345472987610327e-01  5.3484884144831372e-02  -5.1148182430202416e-01  -8.2505704832640137e-01  -9.1536493174596134e-01  -8.1646109249390197e-01  -5.7116644022262641e-01  -5.3228724853015406e-02  -2.1664654371964881e-02  5.6601564028182638e-01  9.1089354749370000e-01  1.0520370112949564e+00  9.7114821016561725e-01  6.1901160628153540e-01  1.7508294066664074e-02  -5.3640817358894910e-01  -9.0805210693412886e-01  -1.0410801379110275e+00  -9.8080619232249644e-01  -6.4429523925915744e-01  -2.1664654371964881e-02  -1.6347042808063733e-02  4.7061130743327984e-01  8.2635286777175032e-01  9.8933165329746009e-01  8.0063080493550265e-01  5.1961871975287788e-01  2.1782830581867321e-02  -4.3596170638965953e-01  -8.6450654184112163e-01  -9.7243006542026134e-01  -8.0678739042586511e-01  -5.3985346848877813e-01  -1.6347042808063733e-02  1.1354738053009928e-02  3.3567051938479897e-01  5.7512110000954231e-01  6.4423683559316225e-01  5.3738067271722556e-01  3.2676724326802914e-01  2.2677349489671036e-04  -3.1371853913656383e-01  -6.1122108499866534e-01  -6.2399169214317740e-01  -5.2147660693607067e-01  -3.4676550003758844e-01  1.1354738053009928e-02  1.7097454752803158e-02  2.7894265715722188e-02  4.8737823240675604e-02  1.7504748953870313e-02  3.7977351213979708e-02  -7.5235460173579708e-03  -9.9702104422876078e-03  -4.5614825420829258e-02  -2.9907450846574927e-02  -1.3738361131235862e-02  -1.1527856435107771e-02  5.7086221383268266e-03  1.7097454752803158e-02  4.6799554952382527e-02  -2.0359651287236621e-01  -4.6610070223541850e-01  -5.6692160284462800e-01  -4.7430274916158227e-01  -3.3839639768837076e-01  -2.6118870705131737e-02  2.2235418480799887e-01  5.1476675684698248e-01  5.4393292974975571e-01  4.3236795642664200e-01  2.9705602790737146e-01  4.6799554952382527e-02  4.7675768575286312e-02  -5.0481404545010233e-01  -8.2484862939781167e-01  -9.1457813301738056e-01  -8.2970907009418304e-01  -5.7750924570371465e-01  -5.5469921550101435e-02  4.7566488298804843e-01  8.3070381688527906e-01  9.2387292720394010e-01  8.4989965365786690e-01  6.0335663204464085e-01  4.7675768575286312e-02  2.2527551938326104e-02  -5.3021930485740054e-01  -9.2712528544886896e-01  -1.0399843081166524e+00  -9.9130722854592301e-01  -6.5884957092899887e-01  -2.0480015554081181e-02  5.6794340105686647e-01  9.1158531964848655e-01  1.0589503606076311e+00  9.8333654376839918e-01  6.2332036576079686e-01  2.2527551938326104e-02  1.1236685982616674e-02  -4.3894504296002246e-01  -8.4662942778597738e-01  -9.6376353252080627e-01  -8.0401633809376771e-01  -5.4901237426111538e-01  -2.909855