<?xml version="1.0"?>
<VTKFile type="UnstructuredGrid"  version="0.1"  >
<UnstructuredGrid>
<Piece  NumberOfPoints="9261" NumberOfCells="48000">
<Points>
<DataArray  type="Float64"  NumberOfComponents="3"  format="ascii">-3.141592653589793 -3.141592653589793 -3.141592653589793  -2.827433388230814 -3.141592653589793 -3.141592653589793  -2.513274122871834 -3.141592653589793 -3.141592653589793  -2.199114857512855 -3.141592653589793 -3.141592653589793  -1.884955592153876 -3.141592653589793 -3.141592653589793  -1.570796326794897 -3.141592653589793 -3.141592653589793  -1.256637061435917 -3.141592653589793 -3.141592653589793  -0.9424777960769379 -3.141592653589793 -3.141592653589793  -0.6283185307179586 -3.141592653589793 -3.141592653589793  -0.3141592653589793 -3.141592653589793 -3.141592653589793  0 -3.141592653589793 -3.141592653589793  0.3141592653589789 -3.141592653589793 -3.141592653589793  0.6283185307179586 -3.141592653589793 -3.141592653589793  0.9424777960769379 -3.141592653589793 -3.141592653589793  1.256637061435917 -3.141592653589793 -3.141592653589793  1.570796326794897 -3.141592653589793 -3.141592653589793  1.884955592153876 -3.141592653589793 -3.141592653589793  2.199114857512855 -3.141592653589793 -3.141592653589793  2.513274122871834 -3.141592653589793 -3.141592653589793  2.827433388230814 -3.141592653589793 -3.141592653589793  3.141592653589793 -3.141592653589793 -3.141592653589793  -3.141592653589793 -2.827433388230814 -3.141592653589793  -2.827433388230814 -2.827433388230814 -3.141592653589793  -2.513274122871834 -2.827433388230814 -3.141592653589793  -2.199114857512855 -2.827433388230814 -3.141592653589793  -1.884955592153876 -2.827433388230814 -3.141592653589793  -1.570796326794897 -2.827433388230814 -3.141592653589793  -1.256637061435917 -2.827433388230814 -3.141592653589793  -0.9424777960769379 -2.827433388230814 -3.141592653589793  -0.6283185307179586 -2.827433388230814 -3.141592653589793  -0.3141592653589793 -2.827433388230814 -3.141592653589793  0 -2.827433388230814 -3.141592653589793  0.3141592653589789 -2.827433388230814 -3.141592653589793  0.6283185307179586 -2.827433388230814 -3.141592653589793  0.9424777960769379 -2.827433388230814 -3.141592653589793  1.256637061435917 -2.827433388230814 -3.141592653589793  1.570796326794897 -2.827433388230814 -3.141592653589793  1.884955592153876 -2.827433388230814 -3.141592653589793  2.199114857512855 -2.827433388230814 -3.141592653589793  2.513274122871834 -2.827433388230814 -3.141592653589793  2.827433388230814 -2.827433388230814 -3.141592653589793  3.141592653589793 -2.827433388230814 -3.141592653589793  -3.141592653589793 -2.513274122871834 -3.141592653589793  -2.827433388230814 -2.513274122871834 -3.141592653589793  -2.513274122871834 -2.513274122871834 -3.141592653589793  -2.199114857512855 -2.513274122871834 -3.141592653589793  -1.884955592153876 -2.513274122871834 -3.141592653589793  -1.570796326794897 -2.513274122871834 -3.141592653589793  -1.256637061435917 -2.513274122871834 -3.141592653589793  -0.9424777960769379 -2.513274122871834 -3.141592653589793  -0.6283185307179586 -2.513274122871834 -3.141592653589793  -0.3141592653589793 -2.513274122871834 -3.141592653589793  0 -2.513274122871834 -3.141592653589793  0.3141592653589789 -2.513274122871834 -3.141592653589793  0.6283185307179586 -2.513274122871834 -3.141592653589793  0.9424777960769379 -2.513274122871834 -3.141592653589793  1.256637061435917 -2.513274122871834 -3.141592653589793  1.570796326794897 -2.513274122871834 -3.141592653589793  1.884955592153876 -2.513274122871834 -3.141592653589793  2.199114857512855 -2.513274122871834 -3.141592653589793  2.513274122871834 -2.513274122871834 -3.141592653589793  2.827433388230814 -2.513274122871834 -3.141592653589793  3.141592653589793 -2.513274122871834 -3.141592653589793  -3.141592653589793 -2.199114857512855 -3.141592653589793  -2.827433388230814 -2.199114857512855 -3.141592653589793  -2.513274122871834 -2.199114857512855 -3.141592653589793  -2.199114857512855 -2.199114857512855 -3.141592653589793  -1.884955592153876 -2.199114857512855 -3.141592653589793  -1.570796326794897 -2.199114857512855 -3.141592653589793  -1.256637061435917 -2.199114857512855 -3.141592653589793  -0.9424777960769379 -2.199114857512855 -3.141592653589793  -0.6283185307179586 -2.199114857512855 -3.141592653589793  -0.3141592653589793 -2.199114857512855 -3.141592653589793  0 -2.199114857512855 -3.141592653589793  0.3141592653589789 -2.199114857512855 -3.141592653589793  0.6283185307179586 -2.199114857512855 -3.141592653589793  0.9424777960769379 -2.199114857512855 -3.141592653589793  1.256637061435917 -2.199114857512855 -3.141592653589793  1.570796326794897 -2.199114857512855 -3.141592653589793  1.884955592153876 -2.199114857512855 -3.141592653589793  2.199114857512855 -2.199114857512855 -3.141592653589793  2.513274122871834 -2.199114857512855 -3.141592653589793  2.827433388230814 -2.199114857512855 -3.141592653589793  3.141592653589793 -2.199114857512855 -3.141592653589793  -3.141592653589793 -1.884955592153876 -3.141592653589793  -2.827433388230814 -1.884955592153876 -3.141592653589793  -2.513274122871834 -1.884955592153876 -3.141592653589793  -2.199114857512855 -1.884955592153876 -3.141592653589793  -1.884955592153876 -1.884955592153876 -3.141592653589793  -1.570796326794897 -1.884955592153876 -3.141592653589793  -1.256637061435917 -1.884955592153876 -3.141592653589793  -0.9424777960769379 -1.884955592153876 -3.141592653589793  -0.6283185307179586 -1.884955592153876 -3.141592653589793  -0.3141592653589793 -1.884955592153876 -3.141592653589793  0 -1.884955592153876 -3.141592653589793  0.3141592653589789 -1.884955592153876 -3.141592653589793  0.6283185307179586 -1.884955592153876 -3.141592653589793  0.9424777960769379 -1.884955592153876 -3.141592653589793  1.256637061435917 -1.884955592153876 -3.141592653589793  1.570796326794897 -1.884955592153876 -3.141592653589793  1.884955592153876 -1.884955592153876 -3.141592653589793  2.199114857512855 -1.884955592153876 -3.141592653589793  2.513274122871834 -1.884955592153876 -3.141592653589793  2.827433388230814 -1.884955592153876 -3.141592653589793  3.141592653589793 -1.884955592153876 -3.141592653589793  -3.141592653589793 -1.570796326794897 -3.141592653589793  -2.827433388230814 -1.570796326794897 -3.141592653589793  -2.513274122871834 -1.570796326794897 -3.141592653589793  -2.199114857512855 -1.570796326794897 -3.141592653589793  -1.884955592153876 -1.570796326794897 -3.141592653589793  -1.570796326794897 -1.570796326794897 -3.141592653589793  -1.256637061435917 -1.570796326794897 -3.141592653589793  -0.9424777960769379 -1.570796326794897 -3.141592653589793  -0.6283185307179586 -1.570796326794897 -3.141592653589793  -0.3141592653589793 -1.570796326794897 -3.141592653589793  0 -1.570796326794897 -3.141592653589793  0.3141592653589789 -1.570796326794897 -3.141592653589793  0.6283185307179586 -1.570796326794897 -3.141592653589793  0.9424777960769379 -1.570796326794897 -3.141592653589793  1.256637061435917 -1.570796326794897 -3.141592653589793  1.570796326794897 -1.570796326794897 -3.141592653589793  1.884955592153876 -1.570796326794897 -3.141592653589793  2.199114857512855 -1.570796326794897 -3.141592653589793  2.513274122871834 -1.570796326794897 -3.141592653589793  2.827433388230814 -1.570796326794897 -3.141592653589793  3.141592653589793 -1.570796326794897 -3.141592653589793  -3.141592653589793 -1.256637061435917 -3.141592653589793  -2.827433388230814 -1.256637061435917 -3.141592653589793  -2.513274122871834 -1.256637061435917 -3.141592653589793  -2.199114857512855 -1.256637061435917 -3.141592653589793  -1.884955592153876 -1.256637061435917 -3.141592653589793  -1.570796326794897 -1.256637061435917 -3.141592653589793  -1.256637061435917 -1.256637061435917 -3.141592653589793  -0.9424777960769379 -1.256637061435917 -3.141592653589793  -0.6283185307179586 -1.256637061435917 -3.141592653589793  -0.3141592653589793 -1.256637061435917 -3.141592653589793  0 -1.256637061435917 -3.141592653589793  0.3141592653589789 -1.256637061435917 -3.141592653589793  0.6283185307179586 -1.256637061435917 -3.141592653589793  0.9424777960769379 -1.256637061435917 -3.141592653589793  1.256637061435917 -1.256637061435917 -3.141592653589793  1.570796326794897 -1.256637061435917 -3.141592653589793  1.884955592153876 -1.256637061435917 -3.141592653589793  2.199114857512855 -1.256637061435917 -3.141592653589793  2.513274122871834 -1.256637061435917 -3.141592653589793  2.827433388230814 -1.256637061435917 -3.141592653589793  3.141592653589793 -1.256637061435917 -3.141592653589793  -3.141592653589793 -0.9424777960769379 -3.141592653589793  -2.827433388230814 -0.9424777960769379 -3.141592653589793  -2.513274122871834 -0.9424777960769379 -3.141592653589793  -2.199114857512855 -0.9424777960769379 -3.141592653589793  -1.884955592153876 -0.9424777960769379 -3.141592653589793  -1.570796326794897 -0.9424777960769379 -3.141592653589793  -1.256637061435917 -0.9424777960769379 -3.141592653589793  -0.9424777960769379 -0.9424777960769379 -3.141592653589793  -0.6283185307179586 -0.9424777960769379 -3.141592653589793  -0.3141592653589793 -0.9424777960769379 -3.141592653589793  0 -0.9424777960769379 -3.141592653589793  0.3141592653589789 -0.9424777960769379 -3.141592653589793  0.6283185307179586 -0.9424777960769379 -3.141592653589793  0.9424777960769379 -0.9424777960769379 -3.141592653589793  1.256637061435917 -0.9424777960769379 -3.141592653589793  1.570796326794897 -0.9424777960769379 -3.141592653589793  1.884955592153876 -0.9424777960769379 -3.141592653589793  2.199114857512855 -0.9424777960769379 -3.141592653589793  2.513274122871834 -0.9424777960769379 -3.141592653589793  2.827433388230814 -0.9424777960769379 -3.141592653589793  3.141592653589793 -0.9424777960769379 -3.141592653589793  -3.141592653589793 -0.6283185307179586 -3.141592653589793  -2.827433388230814 -0.6283185307179586 -3.141592653589793  -2.513274122871834 -0.6283185307179586 -3.141592653589793  -2.19
[...]
<PointData  Scalars="f_23684"> 
<DataArray  type="Float64"  Name="f_23684"  format="ascii">2.7420034146395048e-02  1.3919627442987459e-01  3.8905506707731519e-02  1.2695054081271528e-01  -3.7401491207270958e-03  -1.4620458155364788e-01  -1.4724875986104055e-01  -1.0511787576262478e-01  -4.2900840291202891e-02  -3.0955122449192938e-02  -2.7840718630560576e-02  -3.2289565445997426e-02  -4.4309807521972708e-02  -1.0663762407450786e-01  -1.4865116073668644e-01  -1.4741262786439283e-01  -4.6520624888649071e-03  1.2622015272006876e-01  3.8546189921279686e-02  1.3945170469120011e-01  2.7420034146395048e-02  3.1515578075625252e-02  -8.0012643491483182e-01  -6.7716146184071380e-01  -7.0135310003444096e-01  -9.7608064938233619e-01  -1.1012641028988803e+00  -1.0340318990490287e+00  -9.2011218122075544e-01  -8.2201291600016835e-01  -9.2692737585200657e-01  -1.3895173944994332e-01  7.9965249340514066e-01  9.1229779916228637e-01  1.0996085234532647e+00  1.1858092113182741e+00  1.1658734558292350e+00  9.2768532267232662e-01  6.9816774205473220e-01  5.4233808686369822e-01  9.2699429195557781e-01  3.1515578075625252e-02  4.4164529695042164e-02  -9.1272505234998380e-01  -1.5507685746275343e-01  -3.4087759550050542e-02  8.9418973688310723e-03  -1.1701763143191752e-02  -2.8892905071393685e-04  -6.3129513860666259e-02  -1.8406754365702171e-02  -5.4303738555525438e-01  -3.8004216867963896e-02  6.7666505601250970e-01  1.5501480714746510e-01  9.1534847954432536e-02  5.4226089274552513e-03  -1.1021553088326677e-02  -5.6812665443472056e-02  -1.9396239246584992e-03  1.7891582058694028e-02  8.2139624792842469e-01  4.4164529695042164e-02  1.0730153823834412e-01  -1.1002496319353117e+00  -9.1708452630922810e-02  -1.1787299492234780e-01  -1.1105835455123456e-01  -1.3232261697831188e-01  -1.0149600243273230e-01  -1.4366672051361887e-01  1.8044641955983285e-03  -6.9900076831661073e-01  -1.2514254574399708e-01  7.0040390611849801e-01  3.3877488220039290e-02  1.1785295797363358e-01  1.1110175526926785e-01  1.2773726604393809e-01  1.2769164192162649e-01  1.4366237603656201e-01  6.2667646847374678e-02  9.1927405581816268e-01  1.0730153823834412e-01  1.5009212026977028e-01  -1.1863863811276241e+00  -5.5583556412253160e-03  -1.1098909355998694e-01  -6.7343556555163414e-02  -7.6219532212393512e-02  -6.2895443878070001e-02  -1.2754191479509888e-01  5.6685929095454779e-02  -9.2866484246213787e-01  6.5831681555781063e-03  9.7468364640227234e-01  -9.1140086205901555e-03  1.1114588390742176e-01  6.7420920178751953e-02  7.4327164286745365e-02  6.2992867828376278e-02  1.0151335074276620e-01  -9.1845152048956459e-05  1.0328185731015616e+00  1.5009212026977028e-01  1.4925665246107661e-01  -1.1662161151134345e+00  1.0828522205718769e-02  -1.2755363448779750e-01  -7.4263102969405193e-02  -7.1043792054585164e-02  -7.4169826874926667e-02  -1.2753662361182444e-01  1.0760935523766472e-02  -1.1667619842743397e+00  1.4963622617410144e-01  1.0998160837234801e+00  1.1491193614336342e-02  1.3235651130511045e-01  7.6269668077765501e-02  7.1056461242321622e-02  7.6212880157231336e-02  1.3232163630844471e-01  1.1435756479713946e-02  1.0996718859214318e+00  1.4925665246107661e-01  6.0671477259266714e-03  -9.2789120513258183e-01  5.6770994756072370e-02  -1.2758487884645262e-01  -6.3044013636918639e-02  -7.6235539969628299e-02  -6.7341991329477310e-02  -1.1094089177625184e-01  -5.7358972248514658e-03  -1.1864208241359553e+00  1.5050685950492315e-01  1.0328132009614563e+00  1.0908740135206823e-04  1.0165989273300124e-01  6.3109287406369355e-02  7.4339827602512037e-02  6.7435265766143712e-02  1.1118611883620215e-01  -9.0849572998949191e-03  9.7430380736482081e-01  6.0671477259266714e-03  -1.2550283069029516e-01  -6.9831704744732881e-01  1.9109392569970597e-03  -1.4352127731233616e-01  -1.0145237931935917e-01  -1.3216230970608386e-01  -1.1095770328632372e-01  -1.1763755634378766e-01  -9.1911730998020844e-02  -1.1000436886828424e+00  1.0796513638053652e-01  9.1914016105158314e-01  6.2792259874573875e-02  1.4364888810728457e-01  1.2765135734647823e-01  1.2768573128289615e-01  1.1108788562072294e-01  1.1786205018834088e-01  3.3946847607863796e-02  7.0027739703272440e-01  -1.2550283069029516e-01  -3.8282701238579429e-02  -5.4284176097795112e-01  -1.8544111640291103e-02  -6.3134950499144762e-02  -3.1302228104272619e-04  -1.1683122703313984e-02  8.9786955614851657e-03  -3.3945764378195277e-02  -1.5548164927041769e-01  -9.1243545872972387e-01  4.4957352226475920e-02  8.2128995151036488e-01  1.8194518038076288e-02  -1.7923102146275649e-03  -5.6664121001314585e-02  -1.0803186294436211e-02  5.5451647380139303e-03  9.1721251746645249e-02  1.5529402418629340e-01  6.7681547815106713e-01  -3.8282701238579429e-02  -1.3928380989871686e-01  -9.2690502191227364e-01  -8.2186603227416055e-01  -9.2003594996778137e-01  -1.0340389683105675e+00  -1.1012116679878292e+00  -9.7564810066696150e-01  -7.0096326193716052e-01  -6.7710207594649674e-01  -7.9959312692081208e-01  3.2012950544453807e-02  9.2651353137699710e-01  5.4286582053647003e-01  6.9874414765946835e-01  9.2819557337951297e-01  1.1662428048194853e+00  1.1860253912651586e+00  1.0997074799404254e+00  9.1229166236269044e-01  7.9955488682400744e-01  -1.3928380989871686e-01  -2.8119258700369930e-02  -3.0746352410061149e-02  -4.2666491699244705e-02  -1.0510702740135668e-01  -1.4745061793132461e-01  -1.4644612521885350e-01  -4.0349310825635630e-03  1.2640639880934068e-01  3.8519235502771400e-02  1.3908066306823030e-01  2.7183100639826208e-02  1.3818832684228824e-01  3.7727212165095260e-02  1.2540536720718207e-01  -5.4429360747040917e-03  -1.4803613814809860e-01  -1.4903214655290231e-01  -1.0693951027104918e-01  -4.4608194934476056e-02  -3.2771558525961780e-02  -2.8119258700369930e-02  -1.4048098693449257e-01  7.9961156456428373e-01  9.1207110689096760e-01  1.0995103880498782e+00  1.1856053578339341e+00  1.1655482495444651e+00  9.2750718516227570e-01  6.9812304352036825e-01  5.4251462148402629e-01  9.2638606998460860e-01  3.1334922948118273e-02  -8.0003082345082666e-01  -6.7667612274158617e-01  -7.0037805323082625e-01  -9.7480442860530758e-01  -1.1004115542253823e+00  -1.0335631829733114e+00  -9.1983873538192351e-01  -8.2163350752862407e-01  -9.2713868405699051e-01  -1.4048098693449257e-01  -3.9823096731116218e-02  6.7698665339090791e-01  1.5498641559001050e-01  9.1363390190033492e-02  5.3309607647293294e-03  -1.1014138133370360e-02  -5.6660867833298344e-02  -1.7963710591276311e-03  1.8241933376974780e-02  8.2125665496197697e-01  4.4195428468374168e-02  -9.1258110581722085e-01  -1.5480911326352972e-01  -3.3815157244800442e-02  9.1969834736953891e-03  -1.1446493917085862e-02  -6.5909128100360772e-05  -6.2874491188515000e-02  -1.7971718807744778e-02  -5.4203457022767743e-01  -3.9823096731116218e-02  -1.2747541263718420e-01  7.0123165275287780e-01  3.4097467099455055e-02  1.1789546808894323e-01  1.1119318913139524e-01  1.2772398738111140e-01  1.2768157485674339e-01  1.4360512308369880e-01  6.2826092596564478e-02  9.1910399867481563e-01  1.0705667218238372e-01  -1.1001131566953337e+00  -9.1493837563748293e-02  -1.1772504296788891e-01  -1.1096882717488186e-01  -1.3213922859512281e-01  -1.0141443012632551e-01  -1.4363439020926172e-01  1.9684819461756970e-03  -6.9782707372143837e-01  -1.2747541263718420e-01  3.9200427072026310e-03  9.7570287564646185e-01  -8.9619817148915010e-03  1.1106237044608712e-01  6.7497921648443537e-02  7.4313772880719331e-02  6.3132963826155533e-02  1.0166521426201224e-01  1.4445974585995878e-04  1.0330785361739483e+00  1.4933297110258789e-01  -1.1860714825840122e+00  -5.3222742155109208e-03  -1.1100657057448526e-01  -6.7302877478631382e-02  -7.6113307139150890e-02  -6.2929007784523636e-02  -1.2767033399786645e-01  5.7042434182045666e-02  -9.2741442780453787e-01  3.9200427072026310e-03  1.4746730514679773e-01  1.1007727152770252e+00  1.1534298671398061e-02  1.3236454099208428e-01  7.6318487661439713e-02  7.1116475371063900e-02  7.6328250459844066e-02  1.3237620804608941e-01  1.1797295223370773e-02  1.1005063316066255e+00  1.4764609608535181e-01  -1.1654800087871433e+00  1.1262020012271338e-02  -1.2761200629639260e-01  -7.4190569289936045e-02  -7.0942175032853133e-02  -7.4240846572020125e-02  -1.2765821275997433e-01  1.1321059092491176e-02  -1.1658171109372397e+00  1.4746730514679773e-01  1.4911416047478623e-01  1.0333705428519329e+00  7.8066951293791415e-05  1.0159087138019435e-01  6.3084530822171456e-02  7.4336721800090350e-02  6.7535154272725023e-02  1.1119580978335540e-01  -8.6714029328706938e-03  9.7548636298681024e-01  3.9408851764020144e-03  -9.2700396556121001e-01  5.6889864814958689e-02  -1.2767089507001320e-01  -6.2921556639709497e-02  -7.6158821898585943e-02  -6.7358690611692210e-02  -1.1103875777207582e-01  -5.1555437170097539e-03  -1.1859995189706667e+00  1.4911416047478623e-01  1.0705597544460804e-01  9.1946802642029912e-01  6.2726852458421967e-02  1.4361403554094487e-01  1.2758099054840105e-01  1.2766371970480869e-01  1.1122193567314215e-01  1.1810012115977372e-01  3.4343507400729036e-02  7.0103095690263084e-01  -1.2757140685842219e-01  -6.9750123955041932e-01  1.7270111889376579e-03  -1.4370189773347558e-01  -1.0148138233682445e-01  -1.3224111639010547e-01  -1.1107092112666354e-01  -1.1775498878016193e-01  -9.1425457150314041e-02  -1.0999897642400827e+00  1.0705597544460804e-01  4.4403497060003426e-02  8.2153004373720295e-01  1.8016304521848263e-02  -1.7486596592904561e-03  -5.6673325035185830e-02  -1.0902986455735370e-02  5.5804321146928895e-03  9.1713867589083675e-02  1.5526925354028348e-01  6.7680834828456504e-01  -3.9889625573378128e-02  -5.4195084098859947e-01  -1.8225087665108431e-02  -6.2996233340418692e-02  -1.5664780944456074e-04  -1.1504267774651418e-02  9.1529038347573904e-03  -3.3880839330444841e-02  -1.5501991948104105e-01  -9.1253818741326764e-01  4.4403497060003426e-02  3.1738641319889210e-02  9.2686900343299272e-01  5.4245813173622992e-01  6.9843738943089795e-01  9.2778064654713810e-01  1.1657621847171575e+00  1.1855256900328253e+00  1.0992951626103400e+00  9.1190947847694470e-01  7.9942806665123911e-01  -1.4040085119155252e-01  -9.2706856231875501e-01  -8.2173878729308125e-01  -9.1989040617155671e-01  -1.0337585998964927e+00  -1.1007725924983176e+00  -9.7525221360302916e-01  -7.0069918844788226e-01  -6.7694285153690259e-01  -7.9989352375946954e-01  3.1738641319889210e-02  2.7420034146395048e-02  1.3919627442987459e-01  3.8905506707731519e-02  1.2695054081271528e-01  -3.7401491207270958e-03  -1.4620458155364788e-01  -1.4724875986104055e-01  -1.0511787576262478e-01  -4.2900840291202891e-02  -3.0955122449192938e-02  -2.7840718630560576e-02  -3.2289565445997426e-02  -4.4309807521972708e-02  -1.0663762407450786e-01  -1.4865116073668644e-01  -1.4741262786439283e-01  -4.6520624888649071e-03  1.2622015272006876e-01  3.8546189921279686e-02  1.3945170469120011e-01  2.7420034146395048e-02  -8.9059318968757184e-03  9.3965178258389154e-02  3.1916321687212888e-02  1.6361040556697154e-01  1.1936271439735344e-01  -5.0960805923417132e-02  -2.0807924042127915e-01  -2.5255911903861072e-01  -2.2501080029409620e-01  -9.3130162243064973e-02  8.5523944335592454e-03  5.8898497808015836e-02  1.3607769853284893e-01  5.6233640297618452e-02  -1.2442690843742751e-01  -2.9058175021460336e-01  -1.7731164523493279e-01  2.0193325143088997e-03  -7.0243371310387817e-03  1.8097988681946248e-01  -8.9059318968757184e-03  -5.9988160933166106e-02  -6.0866621692624923e-01  -4.5508516767323232e-01  -5.8722727116363826e-01  -9.9232636845298983e-01  -1.1292291930113905e+00  -1.0168607267769874e+00  -8.2559003152059673e-01  -7.6438647929076609e-01  -7.6456168645972311e-01  -9.3693579550121850e-02  6.0846320666099452e-01  7.0558765996062167e-01  8.9851452196890325e-01  1.0525369863548961e+00  1.1824282829756323e+00  9.6614468331653780e-01  6.4929633786940033e-01  3.7670230427236634e-01  8.7173950588846560e-01  -5.9988160933166106e-02  -1.3663751455492310e-01  -7.0595253920261936e-01  -6.4825281347651462e-02  -1.4033958420561102e-02  -3.0746210526279467e-03  -2.7028197897928291e-02  -7.2178994236966748e-02  -6.6724855640270794e-02  -4.4130032398701037e-02  -4.1656715701782154e-01  -3.1170058443632364e-02  4.5474045720191075e-01  6.4556292609173435e-02  5.9045288701225419e-02  3.9009427797233223e-02  1.0092452954720316e-01  -1.1556980508424551e-01  -1.5568077463002211e-01  -1.5745334911037956e-01  8.4005102832851375e-01  -1.3663751455492310e-01  -5.6073243087475147e-02  -8.9932950472491879e-01  -5.9261660215182484e-02  -1.3368116051475346e-01  -1.2948488041152140e-01  -3.1386940289933496e-01  -2.8376789663343227e-01  -2.0575849383193875e-01  -7.0953767050424416e-02  -6.1186293592109531e-01  -1.6220374772351961e-01  5.8656168904398487e-01  1.3644542044491082e-02  1.3376333044353952e-01  2.3624280178979218e-01  2.0812302906204219e-01  1.2536484539475373e-01  1.7559882506538663e-01  -5.2325207047112634e-03  9.3754954795144263e-01  -5.6073243087475147e-02  1.2540716822195064e-01  -1.0534044347134019e+00  -3.9157899118477855e-02  -2.3605556317900411e-01  -2.9079259695807136e-01  -3.5440661802355972e-01  -3.0696248307474755e-01  -2.0285055049946829e-01  5.0826382680669906e-02  -8.6399861665626776e-01  -1.1694589091972241e-01  9.9150219677501905e-01  2.4775220620617735e-03  1.2937114179065085e-01  2.9095991373538976e-01  3.6204975305587783e-01  3.6572297000140519e-01  2.3076079287523485e-01  -9.5053563537480096e-03  9.5619892291106567e-01  1.2540716822195064e-01  2.9193767473829652e-01  -1.1827900068659347e+00  -1.0123581882210435e-01  -2.0772912562096424e-01  -3.6185436266130971e-01  -4.1355404516651684e-01  -4.0619941757567335e-01  -2.5318712457262221e-01  1.0095536845666847e-01  -1.1576659121184136e+00  5.4176009309187784e-02  1.1284039034777589e+00  2.6551145388602735e-02  3.1392934428921609e-01  3.5460670888466589e-01  4.1333424226934717e-01  4.2262896222197849e-01  2.5530094076688808e-01  4.8602636261736866e-02  9.7373837371550287e-01  2.9193767473829652e-01  1.7831974190837105e-01  -9.6620205679320703e-01  1.1528195475330738e-01  -1.2487414142096491e-01  -3.6560383996273932e-01  -4.2275353840745628e-01  -3.2920913443654892e-01  -2.2919161838731750e-01  7.4118343084560126e-02  -1.3176441346902257e+00  2.1131081945922159e-01  1.0158422523892312e+00  7.1910979069321479e-02  2.8385607894394854e-01  3.0705708677865640e-01  4.0590360615963123e-01  3.2919912583728966e-01  1.1377185712656644e-01  2.3283336528965068e-02  8.7705460500800669e-01  1.7831974190837105e-01  -1.5921931173174266e-03  -6.4937403300528340e-01  1.5557805256281643e-01  -1.7510463146682273e-01  -2.3039081038926540e-01  -2.5500376480336268e-01  -1.1347127535654614e-01  -9.0199613033354609e-02  2.5244525916087775e-02  -1.2092225253585254e+00  2.5539216248993196e-01  8.2443105117270121e-01  6.6398234144619608e-02  2.0574729494141400e-01  2.0268581126337687e-01  2.5301150433714797e-01  2.2952840806216812e-01  9.0746785500866803e-02  4.5542659438159577e-02  6.3733242811420210e-01  -1.5921931173174266e-03  7.0536554244362741e-03  -3.7704213898116601e-01  1.5708123192403817e-01  5.3135145776820472e-03  9.6997360324900944e-03  -4.8606110707762794e-02  -2.3287133555773300e-02  -4.5503978615470835e-02  -1.2725980254322056e-01  -9.3188537993378739e-01  2.2735276455646325e-01  7.6368931336041668e-01  4.4054753364039266e-02  7.1134912725212468e-02  -5.0674813349099887e-02  -1.0094022812501459e-01  -7.4116610379845779e-02  -2.5106589185499680e-02  1.2717943442444155e-01  5.7997619663326250e-01  7.0536554244362741e-03  -1.8101745620897447e-01  -8.7191355375772406e-01  -8.4051967949533457e-01  -9.3831190371417605e-01  -9.5719629660783967e-01  -9.7495973863411267e-01  -8.7794831080351754e-01  -6.3777826184816955e-01  -5.8016951568975350e-01  -6.9712710674830236e-01  9.4304334247262478e-02  7.6416369752964419e-01  4.1646439561790982e-01  6.1158005229056345e-01  8.6350285854442688e-01  1.1569623699038973e+00  1.3170175528846479e+00  1.2090988610720803e+00  9.3207937205107949e-01  6.9733450370661920e-01  -1.8101745620897447e-01  8.1417290093620913e-03  6.0338600738295362e-02  1.3775347309370595e-01  5.7857675083581507e-02  -1.2326777294207525e-01  -2.8981546974564187e-01  -1.7681421631465319e-01  2.1540128922111759e-03  -7.0459701804096893e-03  1.8060139443788331e-01  -9.2460646213351275e-03  9.3001366563589510e-02  3.0909286525568454e-02  1.6223998907959242e-01  1.1778827550387466e-01  -5.2606065716333091e-02  -2.0966875383148764e-01  -2.5429500014286421e-01  -2.2690050947780935e-01  -9.5046880662307792e-02  8.1417290093620913e-03  -9.4764176812894799e-02  6.0835791593693100e-01  7.0532133191848601e-01  8.9849724864428149e-01  1.0525096099288178e+00  1.1822216487382435e+00  9.6599113510561929e-01  6.4928539880771297e-01  3.7698352542221231e-01  8.7125047805434630e-01  -6.0314335125992734e-02  -6.0878857158687061e-01  -4.5488317030262171e-01  -5.8648413165077740e-01  -9.9142031192504587e-01  -1.1288012695734699e+00  -1.0165657769308234e+00  -8.2533584041927732e-01  -7.6400709042290349e-01  -7.6493941041424651e-01  -9.4764176812894799e-02  -3.2327373686314678e-02  4.5513035120879269e-01  6.4721574633619508e-02  5.9079385367904934e-02  3.8932890613688015e-02  1.0109416893641913e-01  -1.1516727215285297e-01  -1.5528830650020153e-01  -1.5697127037101052e-01  8.4009033979535230e-01  -1.3676541646959131e-01  -7.0582182299336371e-01  -6.4595444676908031e-02  -1.3645850627462630e-02  -2.5205780301258227e-03  -2.6591620004838144e-02  -7.1972288737696136e-02  -6.6582809835936507e-02  -4.3524859703107932e-02  -4.1596938029304520e-01  -3.2327373686314678e-02  -1.6399345676025731e-01  5.8723997270527029e-01  1.3917048468740067e-02  1.3360044401759988e-01  2.3597212715571622e-01  2.0783498505015263e-01  1.2519832828645788e-01  1.7522743408403488e-01  -5.2985533819559149e-03  9.3763890878640455e-01  -5.6278507900280807e-02  -8.9921013001160388e-01  -5.9173108519690189e-02  -1.3377764485956106e-01  -1.2914015186965697e-01  -3.1388487238830648e-01  -2.8395471270309064e-01  -2.0612855269702496e-01  -7.0649326428493073e-02  -6.1112997567195249e-01  -1.6399345676025731e-01  -1.1918851757305217e-01  9.9239164851078920e-01  2.7350019041535068e-03  1.2929426963116034e-01  2.9066626696504810e-01  3.6177002816844606e-01  3.6546950785145610e-01  2.3056375506384788e-01  -9.5199777330372878e-03  9.5651642986615215e-01  1.2486510670091930e-01  -1.0531501390307199e+00  -3.8908637404767521e-02  -2.3580958684314282e-01  -2.9066129334293678e-01  -3.5439422957251798e-01  -3.0700461658794903e-01  -2.0312178419381927e-01  5.1314636678758081e-02  -8.6290536974124887e-01  -1.1918851757305217e-01  5.2118514128543590e-02  1.1293336793666482e+00  2.6569482417342284e-02  3.1375814160189652e-01  3.5437744661858567e-01  4.1324722642736367e-01  4.2276345122532843e-01  2.5516640667969770e-01  4.8827530315742294e-02  9.7438917446667250e-01  2.9072329386461909e-01  -1.1823665760883697e+00  -1.0082432727992995e-01  -2.0765516240447354e-01  -3.6164939763051507e-01  -4.1302636896487738e-01  -4.0584427320899907e-01  -2.5328861654346158e-01  1.0142441570373062e-01  -1.1565541232708028e+00  5.2118514128543590e-02  2.0984560311111822e-01  1.0165291152743832e+00  7.1697973528286649e-02  2.8384733943008977e-01  3.0702912639437341e-01  4.0619219408816581e-01  3.2917718823250230e-01  1.1367588627736629e-01  2.3691038739438668e-02  8.7781542000572566e-01  1.7671282865820725e-01  -9.6574835875943077e-01  1.1549835788226970e-01  -1.2520174071437626e-01  -3.6528131418911897e-01  -4.2227765847341042e-01  -3.2888427907791978e-01  -2.2928423861538758e-01  7.4380348559605916e-02  -1.3170352341365188e+00  2.0984560311111822e-01  2.5448436473550490e-01  8.2498692218386671e-01  6.6379096896903744e-02  2.0587347647988136e-01  2.0298879110031756e-01  2.5330166208790106e-01  2.2955359492855518e-01  9.0590443059152773e-02  4.5961268455322946e-02  6.3784108037460996e-01  -3.0671779116353370e-03  -6.4894473307283740e-01  1.5542117061928537e-01  -1.7526414804661269e-01  -2.300467654242