<?xml version="1.0"?>
<VTKFile type="UnstructuredGrid"  version="0.1"  >
<UnstructuredGrid>
<Piece  NumberOfPoints="9261" NumberOfCells="48000">
<Points>
<DataArray  type="Float64"  NumberOfComponents="3"  format="ascii">-3.141592653589793 -3.141592653589793 -3.141592653589793  -2.827433388230814 -3.141592653589793 -3.141592653589793  -2.513274122871834 -3.141592653589793 -3.141592653589793  -2.199114857512855 -3.141592653589793 -3.141592653589793  -1.884955592153876 -3.141592653589793 -3.141592653589793  -1.570796326794897 -3.141592653589793 -3.141592653589793  -1.256637061435917 -3.141592653589793 -3.141592653589793  -0.9424777960769379 -3.141592653589793 -3.141592653589793  -0.6283185307179586 -3.141592653589793 -3.141592653589793  -0.3141592653589793 -3.141592653589793 -3.141592653589793  0 -3.141592653589793 -3.141592653589793  0.3141592653589789 -3.141592653589793 -3.141592653589793  0.6283185307179586 -3.141592653589793 -3.141592653589793  0.9424777960769379 -3.141592653589793 -3.141592653589793  1.256637061435917 -3.141592653589793 -3.141592653589793  1.570796326794897 -3.141592653589793 -3.141592653589793  1.884955592153876 -3.141592653589793 -3.141592653589793  2.199114857512855 -3.141592653589793 -3.141592653589793  2.513274122871834 -3.141592653589793 -3.141592653589793  2.827433388230814 -3.141592653589793 -3.141592653589793  3.141592653589793 -3.141592653589793 -3.141592653589793  -3.141592653589793 -2.827433388230814 -3.141592653589793  -2.827433388230814 -2.827433388230814 -3.141592653589793  -2.513274122871834 -2.827433388230814 -3.141592653589793  -2.199114857512855 -2.827433388230814 -3.141592653589793  -1.884955592153876 -2.827433388230814 -3.141592653589793  -1.570796326794897 -2.827433388230814 -3.141592653589793  -1.256637061435917 -2.827433388230814 -3.141592653589793  -0.9424777960769379 -2.827433388230814 -3.141592653589793  -0.6283185307179586 -2.827433388230814 -3.141592653589793  -0.3141592653589793 -2.827433388230814 -3.141592653589793  0 -2.827433388230814 -3.141592653589793  0.3141592653589789 -2.827433388230814 -3.141592653589793  0.6283185307179586 -2.827433388230814 -3.141592653589793  0.9424777960769379 -2.827433388230814 -3.141592653589793  1.256637061435917 -2.827433388230814 -3.141592653589793  1.570796326794897 -2.827433388230814 -3.141592653589793  1.884955592153876 -2.827433388230814 -3.141592653589793  2.199114857512855 -2.827433388230814 -3.141592653589793  2.513274122871834 -2.827433388230814 -3.141592653589793  2.827433388230814 -2.827433388230814 -3.141592653589793  3.141592653589793 -2.827433388230814 -3.141592653589793  -3.141592653589793 -2.513274122871834 -3.141592653589793  -2.827433388230814 -2.513274122871834 -3.141592653589793  -2.513274122871834 -2.513274122871834 -3.141592653589793  -2.199114857512855 -2.513274122871834 -3.141592653589793  -1.884955592153876 -2.513274122871834 -3.141592653589793  -1.570796326794897 -2.513274122871834 -3.141592653589793  -1.256637061435917 -2.513274122871834 -3.141592653589793  -0.9424777960769379 -2.513274122871834 -3.141592653589793  -0.6283185307179586 -2.513274122871834 -3.141592653589793  -0.3141592653589793 -2.513274122871834 -3.141592653589793  0 -2.513274122871834 -3.141592653589793  0.3141592653589789 -2.513274122871834 -3.141592653589793  0.6283185307179586 -2.513274122871834 -3.141592653589793  0.9424777960769379 -2.513274122871834 -3.141592653589793  1.256637061435917 -2.513274122871834 -3.141592653589793  1.570796326794897 -2.513274122871834 -3.141592653589793  1.884955592153876 -2.513274122871834 -3.141592653589793  2.199114857512855 -2.513274122871834 -3.141592653589793  2.513274122871834 -2.513274122871834 -3.141592653589793  2.827433388230814 -2.513274122871834 -3.141592653589793  3.141592653589793 -2.513274122871834 -3.141592653589793  -3.141592653589793 -2.199114857512855 -3.141592653589793  -2.827433388230814 -2.199114857512855 -3.141592653589793  -2.513274122871834 -2.199114857512855 -3.141592653589793  -2.199114857512855 -2.199114857512855 -3.141592653589793  -1.884955592153876 -2.199114857512855 -3.141592653589793  -1.570796326794897 -2.199114857512855 -3.141592653589793  -1.256637061435917 -2.199114857512855 -3.141592653589793  -0.9424777960769379 -2.199114857512855 -3.141592653589793  -0.6283185307179586 -2.199114857512855 -3.141592653589793  -0.3141592653589793 -2.199114857512855 -3.141592653589793  0 -2.199114857512855 -3.141592653589793  0.3141592653589789 -2.199114857512855 -3.141592653589793  0.6283185307179586 -2.199114857512855 -3.141592653589793  0.9424777960769379 -2.199114857512855 -3.141592653589793  1.256637061435917 -2.199114857512855 -3.141592653589793  1.570796326794897 -2.199114857512855 -3.141592653589793  1.884955592153876 -2.199114857512855 -3.141592653589793  2.199114857512855 -2.199114857512855 -3.141592653589793  2.513274122871834 -2.199114857512855 -3.141592653589793  2.827433388230814 -2.199114857512855 -3.141592653589793  3.141592653589793 -2.199114857512855 -3.141592653589793  -3.141592653589793 -1.884955592153876 -3.141592653589793  -2.827433388230814 -1.884955592153876 -3.141592653589793  -2.513274122871834 -1.884955592153876 -3.141592653589793  -2.199114857512855 -1.884955592153876 -3.141592653589793  -1.884955592153876 -1.884955592153876 -3.141592653589793  -1.570796326794897 -1.884955592153876 -3.141592653589793  -1.256637061435917 -1.884955592153876 -3.141592653589793  -0.9424777960769379 -1.884955592153876 -3.141592653589793  -0.6283185307179586 -1.884955592153876 -3.141592653589793  -0.3141592653589793 -1.884955592153876 -3.141592653589793  0 -1.884955592153876 -3.141592653589793  0.3141592653589789 -1.884955592153876 -3.141592653589793  0.6283185307179586 -1.884955592153876 -3.141592653589793  0.9424777960769379 -1.884955592153876 -3.141592653589793  1.256637061435917 -1.884955592153876 -3.141592653589793  1.570796326794897 -1.884955592153876 -3.141592653589793  1.884955592153876 -1.884955592153876 -3.141592653589793  2.199114857512855 -1.884955592153876 -3.141592653589793  2.513274122871834 -1.884955592153876 -3.141592653589793  2.827433388230814 -1.884955592153876 -3.141592653589793  3.141592653589793 -1.884955592153876 -3.141592653589793  -3.141592653589793 -1.570796326794897 -3.141592653589793  -2.827433388230814 -1.570796326794897 -3.141592653589793  -2.513274122871834 -1.570796326794897 -3.141592653589793  -2.199114857512855 -1.570796326794897 -3.141592653589793  -1.884955592153876 -1.570796326794897 -3.141592653589793  -1.570796326794897 -1.570796326794897 -3.141592653589793  -1.256637061435917 -1.570796326794897 -3.141592653589793  -0.9424777960769379 -1.570796326794897 -3.141592653589793  -0.6283185307179586 -1.570796326794897 -3.141592653589793  -0.3141592653589793 -1.570796326794897 -3.141592653589793  0 -1.570796326794897 -3.141592653589793  0.3141592653589789 -1.570796326794897 -3.141592653589793  0.6283185307179586 -1.570796326794897 -3.141592653589793  0.9424777960769379 -1.570796326794897 -3.141592653589793  1.256637061435917 -1.570796326794897 -3.141592653589793  1.570796326794897 -1.570796326794897 -3.141592653589793  1.884955592153876 -1.570796326794897 -3.141592653589793  2.199114857512855 -1.570796326794897 -3.141592653589793  2.513274122871834 -1.570796326794897 -3.141592653589793  2.827433388230814 -1.570796326794897 -3.141592653589793  3.141592653589793 -1.570796326794897 -3.141592653589793  -3.141592653589793 -1.256637061435917 -3.141592653589793  -2.827433388230814 -1.256637061435917 -3.141592653589793  -2.513274122871834 -1.256637061435917 -3.141592653589793  -2.199114857512855 -1.256637061435917 -3.141592653589793  -1.884955592153876 -1.256637061435917 -3.141592653589793  -1.570796326794897 -1.256637061435917 -3.141592653589793  -1.256637061435917 -1.256637061435917 -3.141592653589793  -0.9424777960769379 -1.256637061435917 -3.141592653589793  -0.6283185307179586 -1.256637061435917 -3.141592653589793  -0.3141592653589793 -1.256637061435917 -3.141592653589793  0 -1.256637061435917 -3.141592653589793  0.3141592653589789 -1.256637061435917 -3.141592653589793  0.6283185307179586 -1.256637061435917 -3.141592653589793  0.9424777960769379 -1.256637061435917 -3.141592653589793  1.256637061435917 -1.256637061435917 -3.141592653589793  1.570796326794897 -1.256637061435917 -3.141592653589793  1.884955592153876 -1.256637061435917 -3.141592653589793  2.199114857512855 -1.256637061435917 -3.141592653589793  2.513274122871834 -1.256637061435917 -3.141592653589793  2.827433388230814 -1.256637061435917 -3.141592653589793  3.141592653589793 -1.256637061435917 -3.141592653589793  -3.141592653589793 -0.9424777960769379 -3.141592653589793  -2.827433388230814 -0.9424777960769379 -3.141592653589793  -2.513274122871834 -0.9424777960769379 -3.141592653589793  -2.199114857512855 -0.9424777960769379 -3.141592653589793  -1.884955592153876 -0.9424777960769379 -3.141592653589793  -1.570796326794897 -0.9424777960769379 -3.141592653589793  -1.256637061435917 -0.9424777960769379 -3.141592653589793  -0.9424777960769379 -0.9424777960769379 -3.141592653589793  -0.6283185307179586 -0.9424777960769379 -3.141592653589793  -0.3141592653589793 -0.9424777960769379 -3.141592653589793  0 -0.9424777960769379 -3.141592653589793  0.3141592653589789 -0.9424777960769379 -3.141592653589793  0.6283185307179586 -0.9424777960769379 -3.141592653589793  0.9424777960769379 -0.9424777960769379 -3.141592653589793  1.256637061435917 -0.9424777960769379 -3.141592653589793  1.570796326794897 -0.9424777960769379 -3.141592653589793  1.884955592153876 -0.9424777960769379 -3.141592653589793  2.199114857512855 -0.9424777960769379 -3.141592653589793  2.513274122871834 -0.9424777960769379 -3.141592653589793  2.827433388230814 -0.9424777960769379 -3.141592653589793  3.141592653589793 -0.9424777960769379 -3.141592653589793  -3.141592653589793 -0.6283185307179586 -3.141592653589793  -2.827433388230814 -0.6283185307179586 -3.141592653589793  -2.513274122871834 -0.6283185307179586 -3.141592653589793  -2.19
[...]
<PointData  Scalars="f_7872"> 
<DataArray  type="Float64"  Name="f_7872"  format="ascii">1.1760027344222095e-01  4.0833859957396225e-02  -8.0265599793322734e-02  -6.3638559750616885e-02  -2.5873107795910979e-02  8.6740357805776512e-03  3.1122258185867988e-02  1.5003971977131811e-02  2.3629011145641341e-02  -2.0444873247482811e-02  -1.1782743359036212e-01  -2.0666960047796470e-02  2.3446372969372662e-02  1.4771370383192907e-02  3.0907499715031286e-02  8.5254569716534875e-03  -2.5895459394657011e-02  -6.3423306193746212e-02  -7.9957536875802732e-02  4.1029348365845986e-02  1.1760027344222095e-01  2.0259273916574096e-02  -9.5021508097822538e-01  -1.4353467534989457e+00  -1.5139992680966416e+00  -1.4384083501524021e+00  -1.3561955347976942e+00  -1.2709442625949743e+00  -1.2724214942464300e+00  -1.0183432607584997e+00  -1.0913766136597307e+00  -4.1045163877007601e-02  9.5001975476477196e-01  1.0496879320860191e+00  1.1933199251642312e+00  1.2429239489718669e+00  1.3263928812275718e+00  1.4066760349533245e+00  1.5523740774130872e+00  1.5568696290876738e+00  1.0912849213854408e+00  2.0259273916574096e-02  -2.3643750426619429e-02  -1.0497317908933403e+00  -9.5002991202195364e-01  -6.8697598631830825e-01  -5.1778812329119095e-01  -4.8192241785042605e-01  -5.6034560206732231e-01  -6.9486066494254040e-01  -7.8700899383677303e-01  -1.5569848067482122e+00  8.0118323147869056e-02  1.4353018033262366e+00  9.5006425878054623e-01  7.4940239291829314e-01  5.8820026922962587e-01  5.2558253966629209e-01  5.2514417078511355e-01  6.7365740762515114e-01  7.8705940378290196e-01  1.0182707497511381e+00  -2.3643750426619429e-02  -1.4838294408142733e-02  -1.1933199746218595e+00  -7.4939968042749427e-01  -5.4017018371318093e-01  -4.3362504222369963e-01  -4.5037518257355891e-01  -4.6281466003066540e-01  -5.9801829813714313e-01  -6.7362748851923893e-01  -1.5525127794935167e+00  6.3680994851001788e-02  1.5139588170074145e+00  6.8698713129015654e-01  5.4020223498670394e-01  4.4048792278145721e-01  4.3256139921092135e-01  4.7595141190431833e-01  5.9796265898359613e-01  6.9475439016107854e-01  1.2723914620533183e+00  -1.4838294408142733e-02  -3.0858709212634540e-02  -1.2429448030437880e+00  -5.8819602966339857e-01  -4.4051551216548412e-01  -3.5082236149614648e-01  -3.3361443828958515e-01  -3.4460751706482851e-01  -4.7595636779075629e-01  -5.2512368643174268e-01  -1.4068178482879421e+00  2.6159306177928610e-02  1.4383042473185728e+00  5.1782756465339563e-01  4.3367128314994163e-01  3.5084577122868388e-01  3.4596550005104726e-01  3.4464148479116219e-01  4.6279139446865708e-01  5.6024674920884965e-01  1.2708604867562734e+00  -3.0858709212634540e-02  -8.4044335354172949e-03  -1.3264463523357535e+00  -5.2558616436593952e-01  -4.3252081391681418e-01  -3.4590856997740582e-01  -3.0692781873193742e-01  -3.4588696161921229e-01  -4.3251924169560951e-01  -5.2555569693361970e-01  -1.3264981362424293e+00  -8.2698060531442835e-03  1.3560669649870831e+00  4.8189487642890799e-01  4.5039875253779582e-01  3.3371166431107335e-01  3.0701327557536956e-01  3.3364949442508440e-01  4.5038786127395547e-01  4.8184664887229334e-01  1.3560980560882958e+00  -8.4044335354172949e-03  2.6045082365335783e-02  -1.4067539579318376e+00  -5.2514624888339889e-01  -4.7592467248809533e-01  -3.4462623357707184e-01  -3.3358930793250324e-01  -3.5080558255691657e-01  -4.4047721810362350e-01  -5.8817645506230176e-01  -1.2429852026640158e+00  -3.0699590139612980e-02  1.2707793085708592e+00  5.6033988585086059e-01  4.6284250299543023e-01  3.4468972107446294e-01  3.4598572340143741e-01  3.5089172608120317e-01  4.3371336695092055e-01  5.1779443761817867e-01  1.4383272455871112e+00  2.6045082365335783e-02  6.3565197229834808e-02  -1.5524146506657412e+00  -6.7368302323298401e-01  -5.9791616458964092e-01  -4.6283948272128755e-01  -4.5035280012946427e-01  -4.3363373216423606e-01  -5.4017969569102375e-01  -7.4938440689159291e-01  -1.1933390022921377e+00  -1.4655432683729560e-02  1.2723332673843382e+00  6.9480025494490061e-01  5.9794880748167378e-01  4.7599389175229140e-01  4.3260481990882871e-01  4.4056057849167546e-01  5.4026007716641378e-01  6.8696506871375440e-01  1.5139975616025809e+00  6.3565197229834808e-02  8.0028085781180716e-02  -1.5568704137364480e+00  -7.8706858666395896e-01  -6.9480887166758054e-01  -5.6032394831738208e-01  -4.8193851668709620e-01  -5.1785416575749865e-01  -6.8700035204250820e-01  -9.5006952041111703e-01  -1.0496709962898001e+00  -2.3444244278697023e-02  1.0182775201933834e+00  7.8701027512882671e-01  6.7360248668537659e-01  5.2515099092286199e-01  5.2561249944389887e-01  5.8823360142083003e-01  7.4944981009265921e-01  9.5007869366213893e-01  1.4352427790124871e+00  8.0028085781180716e-02  -4.1021312563140039e-02  -1.0912166917554935e+00  -1.0182051422690810e+00  -1.2723733868721463e+00  -1.2708742854831592e+00  -1.3561681238047687e+00  -1.4384183427350998e+00  -1.5140731095703401e+00  -1.4353414344529987e+00  -9.5004130751436944e-01  2.0400033277297832e-02  1.0913129182754162e+00  1.5569972649941222e+00  1.5525069732339427e+00  1.4068364513452702e+00  1.3265134650006918e+00  1.2430177255235197e+00  1.1933170755634954e+00  1.0496226896634124e+00  9.4994142499960632e-01  -4.1021312563140039e-02  -1.1755049860882025e-01  -2.0266006331108460e-02  2.3628013762319690e-02  1.4871927197777550e-02  3.0911441031079893e-02  8.4927893865710934e-03  -2.5968890537480607e-02  -6.3520635981929474e-02  -8.0030491752180827e-02  4.1003026093875072e-02  1.1750781223862566e-01  4.0773717304639003e-02  -8.0200814831192471e-02  -6.3661734659061928e-02  -2.6116955328405727e-02  8.2693955479674446e-03  3.0609104748112469e-02  1.4514674459528766e-02  2.3325941123453393e-02  -2.0533727793083514e-02  -1.1755049860882025e-01  -4.0980662721832803e-02  9.5010858244218166e-01  1.0496337037233405e+00  1.1932635720249711e+00  1.2428751087499241e+00  1.3263864409400168e+00  1.4067301675914168e+00  1.5524283866355775e+00  1.5569047842978867e+00  1.0912954283419951e+00  2.0257676340374599e-02  -9.5007784020265529e-01  -1.4352148698683158e+00  -1.5139429087660297e+00  -1.4383234875392898e+00  -1.3560489204446047e+00  -1.2707789586860869e+00  -1.2723134724497660e+00  -1.0183352683182771e+00  -1.0914442993058542e+00  -4.0980662721832803e-02  7.9881966505710916e-02  1.4353633467587754e+00  9.5008372119285200e-01  7.4937893275920431e-01  5.8820911758299321e-01  5.2557537508797580e-01  5.2514444780535530e-01  6.7366212803712733e-01  7.8702789081070434e-01  1.0182917199796822e+00  -2.3703482724877999e-02  -1.0496443373294202e+00  -9.4999274542183176e-01  -6.8693806162877047e-01  -5.1775857301180783e-01  -4.8190192855348601e-01  -5.6031896142844717e-01  -6.9478691378636692e-01  -7.8699380318201462e-01  -1.5570061068707837e+00  7.9881966505710916e-02  6.3333261292496709e-02  1.5140661648814429e+00  6.8699603568829470e-01  5.4018284635584723e-01  4.4053773056539958e-01  4.3257229104919082e-01  4.7598296744402385e-01  5.9797492088252313e-01  6.9479399931249575e-01  1.2722981739441031e+00  -1.4978687681398727e-02  -1.1932602607655911e+00  -7.4936884584278640e-01  -5.4017132082069219e-01  -4.3362024099189223e-01  -4.5030049753220897e-01  -4.6283119894394553e-01  -5.9792996884554861e-01  -6.7363289155989248e-01  -1.5524436782427524e+00  6.3333261292496709e-02  2.5817129297098795e-02  1.4383985285802443e+00  5.1783945065362214e-01  4.3365361078800235e-01  3.5089656023230104e-01  3.4596379691270940e-01  3.4470684459306139e-01  4.6287273199272039e-01  5.6029360707211728e-01  1.2707910814129597e+00  -3.1047873772738408e-02  -1.2428715072608143e+00  -5.8818000350873090e-01  -4.4050362193967701e-01  -3.5078288527878609e-01  -3.3355672623299543e-01  -3.4461153089706925e-01  -4.7589018183553522e-01  -5.2509084763211811e-01  -1.4067224086371812e+00  2.5817129297098795e-02  -8.5696212173329515e-03  1.3561557264052588e+00  4.8194151454212331e-01  4.5040420023325856e-01  3.3369468420132414e-01  3.0701029038948652e-01  3.3364452581127296e-01  4.5039164579897845e-01  4.8194768760246026e-01  1.3560474606639648e+00  -8.6275426154226939e-03  -1.3263484668468295e+00  -5.2555858559938917e-01  -4.3252156099756311e-01  -3.4593150316187121e-01  -3.0692170511207106e-01  -3.4592589414495462e-01  -4.3249985393742435e-01  -5.2552534823448016e-01  -1.3264330976231216e+00  -8.5696212173329515e-03  -3.0924786156151275e-02  1.2708411848808736e+00  5.6037574838843296e-01  4.6285306836654400e-01  3.4471914095722017e-01  3.4602031047001991e-01  3.5092209668511976e-01  4.3362340797962234e-01  5.1792531666768848e-01  1.4382730024970209e+00  2.5861190808441046e-02  -1.4066797174261116e+00  -5.2513444760898587e-01  -4.7598407657494385e-01  -3.4467384890738390e-01  -3.3366276277193518e-01  -3.5082949979319678e-01  -4.4054233639803936e-01  -5.8821196580694624e-01  -1.2429629716557871e+00  -3.0924786156151275e-02  -1.4798382008267726e-02  1.2722991626729236e+00  6.9490811111186412e-01  5.9797193947203275e-01  4.7599621310969209e-01  4.3259418832420865e-01  4.4056712566495482e-01  5.4022337389459330e-01  6.8708611910696715e-01  1.5139933609993625e+00  6.3410679776655599e-02  -1.5523805566472904e+00  -6.7365270228156693e-01  -5.9802039464009327e-01  -4.6291514243518611e-01  -4.5044166928494045e-01  -4.3369898497596321e-01  -5.4023000859684567e-01  -7.4944600524798854e-01  -1.1933312680765533e+00  -1.4798382008267726e-02  -2.3474561689743666e-02  1.0182461857047840e+00  7.8705973133212259e-01  6.7367070496062731e-01  5.2516426929428550e-01  5.2560342660842163e-01  5.8826426615722460e-01  7.4946354192720377e-01  9.5020192200819664e-01  1.4353350269377869e+00  7.9935680225022301e-02  -1.5569636897807553e+00  -7.8697283591078648e-01  -6.9482120497847044e-01  -5.6036864857558544e-01  -4.8196539348395984e-01  -5.1785963198788987e-01  -6.8702698343078827e-01  -9.5012059956720729e-01  -1.0496992030067998e+00  -2.3474561689743666e-02  2.0520093699093161e-02  1.0913849995224798e+00  1.5571781179029407e+00  1.5526327448921640e+00  1.4068534632400140e+00  1.3265169231965355e+00  1.2430373601860787e+00  1.1934276356022917e+00  1.0497894309473346e+00  9.5008652408965399e-01  -4.1023618233763270e-02  -1.0914389156986555e+00  -1.0183140810307159e+00  -1.2723325058783184e+00  -1.2708867678677278e+00  -1.3561902397088030e+00  -1.4384372440486608e+00  -1.5140903186923074e+00  -1.4353609411634898e+00  -9.5000220399886204e-01  2.0520093699093161e-02  1.1760027344222095e-01  4.0833859957396225e-02  -8.0265599793322734e-02  -6.3638559750616885e-02  -2.5873107795910979e-02  8.6740357805776512e-03  3.1122258185867988e-02  1.5003971977131811e-02  2.3629011145641341e-02  -2.0444873247482811e-02  -1.1782743359036212e-01  -2.0666960047796470e-02  2.3446372969372662e-02  1.4771370383192907e-02  3.0907499715031286e-02  8.5254569716534875e-03  -2.5895459394657011e-02  -6.3423306193746212e-02  -7.9957536875802732e-02  4.1029348365845986e-02  1.1760027344222095e-01  8.7394563697583277e-02  1.7934495894463044e-02  -8.1267917752781582e-02  -5.2556035324901121e-02  -1.1545995040332586e-02  4.8429354973066226e-03  5.2497515566990770e-03  -1.2287329820755572e-02  -1.7301776316506600e-02  -3.1067148395082993e-02  -8.7428009644475044e-02  2.5433300996956482e-02  5.3612732983276672e-02  2.2757004153069665e-02  4.2980669634183129e-02  1.7573453236204035e-02  -1.4439069339724069e-02  -4.6649694507872826e-02  -7.9288823238286246e-02  5.7005936374304178e-02  8.7394563697583277e-02  -2.5978356680435927e-02  -8.5653860259849468e-01  -1.2995310232034825e+00  -1.4039985740739565e+00  -1.3353847341498761e+00  -1.2537520306373586e+00  -1.1580763588276577e+00  -1.1508276504365740e+00  -9.4388989040584403e-01  -9.1790348568849367e-01  -1.8126235273971680e-02  8.5636418865551311e-01  9.1744762403426716e-01  1.0632869006991377e+00  1.1103946895082870e+00  1.2197705345558068e+00  1.3531333072926082e+00  1.5234887631075773e+00  1.3941828318622704e+00  9.5496938232226825e-01  -2.5978356680435927e-02  -5.3980440452132405e-02  -9.1750519609229930e-01  -8.0646068128711867e-01  -6.2828094268497192e-01  -5.2268296559605087e-01  -4.9628782479543465e-01  -5.0497459215407914e-01  -6.3194609124820189e-01  -7.0631337767854097e-01  -1.3434093560101072e+00  8.1134070293947591e-02  1.2994345933308489e+00  8.0648253008853643e-01  6.4428539122724926e-01  5.1964538295534168e-01  5.1610349265622124e-01  5.6052671263418863e-01  6.6238366105052782e-01  6.2619734754596057e-01  8.9796694614153016e-01  -5.3980440452132405e-02  -2.2995083811111997e-02  -1.0633070110480940e+00  -6.4428529851055383e-01  -5.6828724183209978e-01  -5.9670598405339204e-01  -6.1245389912772030e-01  -5.9718048996064499e-01  -6.2335019390250912e-01  -6.6577599219936434e-01  -1.4323672941517205e+00  5.2626921908875669e-02  1.4039470323680574e+00  6.2827720966132239e-01  5.6829769409011743e-01  5.5597749862061263e-01  6.0043148205522268e-01  6.1959256637935456e-01  6.1319373571761926e-01  6.2530912641688496e-01  1.1575141342396460e+00  -2.2995083811111997e-02  -4.3037059874635346e-02  -1.1104229873817484e+00  -5.1967393863525957e-01  -5.5595644279553724e-01  -5.8962301427229202e-01  -6.0283870429779374e-01  -5.8874202538257470e-01  -6.0620227846976138e-01  -5.6105003375629980e-01  -1.3332279282850894e+00  1.1873050734113546e-02  1.3353041984393268e+00  5.2263146929495163e-01  5.9673346355339574e-01  5.8966347977608091e-01  6.1995466517949382e-01  5.8023174889241369e-01  5.9262249425875901e-01  5.3082208074763826e-01  1.1667747718650148e+00  -4.3037059874635346e-02  -1.7513406730271845e-02  -1.2198347045726714e+00  -5.1607517019174554e-01  -6.0034771144816523e-01  -6.1987046120650724e-01  -6.3024695699905686e-01  -6.2515236019381437e-01  -6.1387465755134230e-01  -5.4544710837647681e-01  -1.2349205120346098e+00  -4.3751525316830485e-03  1.2536054561145518e+00  4.9624850120663133e-01  6.1248721913000093e-01  6.0290068288555099e-01  6.3037631164767827e-01  6.3002167856454072e-01  6.1285533900152644e-01  5.3861592486794685e-01  1.2656483464613968e+00  -1.7513406730271845e-02  1.4604154047251352e-02  -1.3532339315756454e+00  -5.6050781896080026e-01  -6.1954624412969206e-01  -5.8022194979542518e-01  -6.2996282928602232e-01  -6.1377056278132325e-01  -6.0303397229401112e-01  -5.5404104864672610e-01  -1.1302880405235216e+00  -4.7701507259855034e-03  1.1579341919713726e+00  5.0492983944775705e-01  5.9715859535585392e-01  5.8883242884532705e-01  6.2525772551399017e-01  6.1386694241067807e-01  6.1451459293123301e-01  6.3054662931594407e-01  1.3514052259926470e+00  1.4604154047251352e-02  4.6864016674915347e-02  -1.5235837479217538e+00  -6.6238643675084963e-01  -6.1321056939624985e-01  -5.9266931520031640e-01  -6.1283380564382472e-01  -6.1444062791522447e-01  -6.4607047563183995e-01  -6.6677641327750936e-01  -1.0670392671943425e+00  1.2677701361150642e-02  1.1507403837887296e+00  6.3188384537556463e-01  6.2329310473397237e-01  6.0621397244970465e-01  6.1391279749782535e-01  6.0312443636946467e-01  6.4614609016825975e-01  7.6014765221721348e-01  1.3514312818398906e+00  4.6864016674915347e-02  7.9473178287506288e-02  -1.3942583498012171e+00  -6.2620683081848139e-01  -6.2542085994607388e-01  -5.3089910895857606e-01  -5.3872307881511095e-01  -6.3059658038393751e-01  -7.6015141032149436e-01  -8.3720885785416377e-01  -9.3246947660455526e-01  1.7470504344248707e-02  9.4387673751636103e-01  7.0631576189177414e-01  6.6571044432572268e-01  5.6101673690297782e-01  5.4545272504498155e-01  5.5406966615014641e-01  6.6681246007623374e-01  8.3722388813203041e-01  1.1883023547763725e+00  7.9473178287506288e-02  -5.6819622355320183e-02  -9.5486328146522659e-01  -8.9789883980610707e-01  -1.1574379245040929e+00  -1.1667511551839089e+00  -1.2656608811676369e+00  -1.3514417967373196e+00  -1.3514456192899362e+00  -1.1883285230061464e+00  -8.0784397943828845e-01  3.1026221618542557e-02  9.1791224949768380e-01  1.3434455707614983e+00  1.4323673086127102e+00  1.3332285001885680e+00  1.2349489177581543e+00  1.1303070016719257e+00  1.0670414182700434e+00  9.3243497598936820e-01  8.0775415289908314e-01  -5.6819622355320183e-02  -8.7266820359339053e-02  2.5833340086188893e-02  5.3877507335603404e-02  2.2935097349979741e-02  4.3035321108308967e-02  1.7525780065541542e-02  -1.4580132704812199e-02  -4.6853452126601476e-02  -7.9519522135352447e-02  5.6828558992622458e-02  8.7154989713152609e-02  1.7886426532298494e-02  -8.1265953581601283e-02  -5.2670501783965873e-02  -1.1853432831184070e-02  4.3508939973301982e-03  4.6848082357613492e-03  -1.2869735471134831e-02  -1.7654773276104551e-02  -3.1120102532997729e-02  -8.7266820359339053e-02  -1.8026741284172369e-02  8.5640185381760447e-01  9.1744111333228340e-01  1.0632694699074823e+00  1.1103819421445338e+00  1.2198049740008843e+00  1.3532215408118413e+00  1.5236078238585153e+00  1.3942890288360150e+00  9.5501781049397583e-01  -2.5821695545843303e-02  -8.5647136331657281e-01  -1.2994441847154665e+00  -1.4039548182167489e+00  -1.3353093651941588e+00  -1.2535946372002140e+00  -1.1579205262771399e+00  -1.1506883367284237e+00  -9.4387533967735249e-01  -9.1797730451584059e-01  -1.8026741284172369e-02  8.1016363708548658e-02  1.2995328705182982e+00  8.0649997526421735e-01  6.4426792629236640e-01  5.1964600422519247e-01  5.1610776302283146e-01  5.6055016786475720e-01  6.6240660798179540e-01  6.2617033434664360e-01  8.9800974035026182e-01  -5.3862682628041565e-02  -9.1750424565104127e-01  -8.0650685430635227e-01  -6.2829597629415734e-01  -5.2267322767421620e-01  -4.9628424801623433e-01  -5.0496638311596409e-01  -6.3191296524098683e-01  -7.0626434002488481e-01  -1.3434721142094714e+00  8.1016363708548658e-02  5.2355761723901807e-02  1.4040986850885193e+00  6.2827121227541338e-01  5.6822280572843420e-01  5.5592473542083842e-01  6.0035034941675935e-01  6.1961432450513043e-01  6.1323465834111035e-01  6.2538661399425877e-01  1.1574308866857277e+00  -2.2901558877974761e-02  -1.0633140447547020e+00  -6.4428564677144962e-01  -5.6827237181627965e-01  -5.9670093715576245e-01  -6.1247823479351693e-01  -5.9724241338112427e-01  -6.2332557414112799e-01  -6.6571558601663672e-01  -1.4323281979877065e+00  5.2355761723901807e-02  1.1562181862382918e-02  1.3354372856889971e+00  5.2262652020048572e-01  5.9670324951601184e-01  5.8958538847868680e-01  6.1992514822654943e-01  5.8018891869925837e-01  5.9261800764552131e-01  5.3085310384163786e-01  1.1667318497950110e+00  -4.3036260836533009e-02  -1.1103988762718220e+00  -5.1966013863578120e-01  -5.5594842064765515e-01  -5.8959607779979673e-01  -6.0283001383416346e-01  -5.8875691603106906e-01  -6.0614932124683829e-01  -5.6096961028513082e-01  -1.3331318127015075e+00  1.1562181862382918e-02  -4.6262125417471768e-03  1.2537173586359103e+00  4.9621545211508633e-01  6.1246223157360880e-01  6.0292777097619232e-01  6.3026874382994902e-01  6.3005746596667422e-01  6.1276423089668042e-01  5.3874566710108684e-01  1.2655549223735281e+00  -1.7574628126552305e-02  -1.2197632725357193e+00  -5.1607148083339471e-01  -6.0039955183481564e-01  -6.1984271475208574e-01  -6.3021984705214307e-01  -6.2508879171086829e-01  -6.1376896237833933e-01  -5.4534448468171259e-01  -1.2348276739960007e+00  -4.6262125417471768e-03  -4.9382153126580394e-03  1.1580095968062174e+00  5.0492262191662363e-01  5.9721564966817642e-01  5.8879115586306707e-01  6.2529883609865822e-01  6.1379008463676232e-01  6.1452762544178541e-01  6.3063328939076491e-01  1.3513679741239946e+00  1.4499195091175037e-02  -1.3531386282262969e+00  -5.6054310982418454e-01  -6.1962346675235280e-01  -5.8021653901876191e-01  -6.2995451434943806e-01  -6.1371901220680247e-01  -6.0295464098566776e-01  -5.5396972190354055e-01  -1.1302610357918834e+00  -4.9382153126580394e-03  1.2608565253849239e-02  1.1507131063049245e+00  6.3191551753921849e-01  6.2330860195991755e-01  6.0623050708782034e-01  6.1393760130055541e-01  6.0312754498146259e-01  6.4615302266545960e-01  7.6025486660145813e-01  1.3514311831702621e+00  4.6736873758335552e-02  -1.5235278501925529e+00  -6.6233610521826969e-01  -6.1330661130720121e-01  -5.927154285810082