<?xml version="1.0"?>
<VTKFile type="UnstructuredGrid"  version="0.1"  >
<UnstructuredGrid>
<Piece  NumberOfPoints="9261" NumberOfCells="48000">
<Points>
<DataArray  type="Float64"  NumberOfComponents="3"  format="ascii">-3.141592653589793 -3.141592653589793 -3.141592653589793  -2.827433388230814 -3.141592653589793 -3.141592653589793  -2.513274122871834 -3.141592653589793 -3.141592653589793  -2.199114857512855 -3.141592653589793 -3.141592653589793  -1.884955592153876 -3.141592653589793 -3.141592653589793  -1.570796326794897 -3.141592653589793 -3.141592653589793  -1.256637061435917 -3.141592653589793 -3.141592653589793  -0.9424777960769379 -3.141592653589793 -3.141592653589793  -0.6283185307179586 -3.141592653589793 -3.141592653589793  -0.3141592653589793 -3.141592653589793 -3.141592653589793  0 -3.141592653589793 -3.141592653589793  0.3141592653589789 -3.141592653589793 -3.141592653589793  0.6283185307179586 -3.141592653589793 -3.141592653589793  0.9424777960769379 -3.141592653589793 -3.141592653589793  1.256637061435917 -3.141592653589793 -3.141592653589793  1.570796326794897 -3.141592653589793 -3.141592653589793  1.884955592153876 -3.141592653589793 -3.141592653589793  2.199114857512855 -3.141592653589793 -3.141592653589793  2.513274122871834 -3.141592653589793 -3.141592653589793  2.827433388230814 -3.141592653589793 -3.141592653589793  3.141592653589793 -3.141592653589793 -3.141592653589793  -3.141592653589793 -2.827433388230814 -3.141592653589793  -2.827433388230814 -2.827433388230814 -3.141592653589793  -2.513274122871834 -2.827433388230814 -3.141592653589793  -2.199114857512855 -2.827433388230814 -3.141592653589793  -1.884955592153876 -2.827433388230814 -3.141592653589793  -1.570796326794897 -2.827433388230814 -3.141592653589793  -1.256637061435917 -2.827433388230814 -3.141592653589793  -0.9424777960769379 -2.827433388230814 -3.141592653589793  -0.6283185307179586 -2.827433388230814 -3.141592653589793  -0.3141592653589793 -2.827433388230814 -3.141592653589793  0 -2.827433388230814 -3.141592653589793  0.3141592653589789 -2.827433388230814 -3.141592653589793  0.6283185307179586 -2.827433388230814 -3.141592653589793  0.9424777960769379 -2.827433388230814 -3.141592653589793  1.256637061435917 -2.827433388230814 -3.141592653589793  1.570796326794897 -2.827433388230814 -3.141592653589793  1.884955592153876 -2.827433388230814 -3.141592653589793  2.199114857512855 -2.827433388230814 -3.141592653589793  2.513274122871834 -2.827433388230814 -3.141592653589793  2.827433388230814 -2.827433388230814 -3.141592653589793  3.141592653589793 -2.827433388230814 -3.141592653589793  -3.141592653589793 -2.513274122871834 -3.141592653589793  -2.827433388230814 -2.513274122871834 -3.141592653589793  -2.513274122871834 -2.513274122871834 -3.141592653589793  -2.199114857512855 -2.513274122871834 -3.141592653589793  -1.884955592153876 -2.513274122871834 -3.141592653589793  -1.570796326794897 -2.513274122871834 -3.141592653589793  -1.256637061435917 -2.513274122871834 -3.141592653589793  -0.9424777960769379 -2.513274122871834 -3.141592653589793  -0.6283185307179586 -2.513274122871834 -3.141592653589793  -0.3141592653589793 -2.513274122871834 -3.141592653589793  0 -2.513274122871834 -3.141592653589793  0.3141592653589789 -2.513274122871834 -3.141592653589793  0.6283185307179586 -2.513274122871834 -3.141592653589793  0.9424777960769379 -2.513274122871834 -3.141592653589793  1.256637061435917 -2.513274122871834 -3.141592653589793  1.570796326794897 -2.513274122871834 -3.141592653589793  1.884955592153876 -2.513274122871834 -3.141592653589793  2.199114857512855 -2.513274122871834 -3.141592653589793  2.513274122871834 -2.513274122871834 -3.141592653589793  2.827433388230814 -2.513274122871834 -3.141592653589793  3.141592653589793 -2.513274122871834 -3.141592653589793  -3.141592653589793 -2.199114857512855 -3.141592653589793  -2.827433388230814 -2.199114857512855 -3.141592653589793  -2.513274122871834 -2.199114857512855 -3.141592653589793  -2.199114857512855 -2.199114857512855 -3.141592653589793  -1.884955592153876 -2.199114857512855 -3.141592653589793  -1.570796326794897 -2.199114857512855 -3.141592653589793  -1.256637061435917 -2.199114857512855 -3.141592653589793  -0.9424777960769379 -2.199114857512855 -3.141592653589793  -0.6283185307179586 -2.199114857512855 -3.141592653589793  -0.3141592653589793 -2.199114857512855 -3.141592653589793  0 -2.199114857512855 -3.141592653589793  0.3141592653589789 -2.199114857512855 -3.141592653589793  0.6283185307179586 -2.199114857512855 -3.141592653589793  0.9424777960769379 -2.199114857512855 -3.141592653589793  1.256637061435917 -2.199114857512855 -3.141592653589793  1.570796326794897 -2.199114857512855 -3.141592653589793  1.884955592153876 -2.199114857512855 -3.141592653589793  2.199114857512855 -2.199114857512855 -3.141592653589793  2.513274122871834 -2.199114857512855 -3.141592653589793  2.827433388230814 -2.199114857512855 -3.141592653589793  3.141592653589793 -2.199114857512855 -3.141592653589793  -3.141592653589793 -1.884955592153876 -3.141592653589793  -2.827433388230814 -1.884955592153876 -3.141592653589793  -2.513274122871834 -1.884955592153876 -3.141592653589793  -2.199114857512855 -1.884955592153876 -3.141592653589793  -1.884955592153876 -1.884955592153876 -3.141592653589793  -1.570796326794897 -1.884955592153876 -3.141592653589793  -1.256637061435917 -1.884955592153876 -3.141592653589793  -0.9424777960769379 -1.884955592153876 -3.141592653589793  -0.6283185307179586 -1.884955592153876 -3.141592653589793  -0.3141592653589793 -1.884955592153876 -3.141592653589793  0 -1.884955592153876 -3.141592653589793  0.3141592653589789 -1.884955592153876 -3.141592653589793  0.6283185307179586 -1.884955592153876 -3.141592653589793  0.9424777960769379 -1.884955592153876 -3.141592653589793  1.256637061435917 -1.884955592153876 -3.141592653589793  1.570796326794897 -1.884955592153876 -3.141592653589793  1.884955592153876 -1.884955592153876 -3.141592653589793  2.199114857512855 -1.884955592153876 -3.141592653589793  2.513274122871834 -1.884955592153876 -3.141592653589793  2.827433388230814 -1.884955592153876 -3.141592653589793  3.141592653589793 -1.884955592153876 -3.141592653589793  -3.141592653589793 -1.570796326794897 -3.141592653589793  -2.827433388230814 -1.570796326794897 -3.141592653589793  -2.513274122871834 -1.570796326794897 -3.141592653589793  -2.199114857512855 -1.570796326794897 -3.141592653589793  -1.884955592153876 -1.570796326794897 -3.141592653589793  -1.570796326794897 -1.570796326794897 -3.141592653589793  -1.256637061435917 -1.570796326794897 -3.141592653589793  -0.9424777960769379 -1.570796326794897 -3.141592653589793  -0.6283185307179586 -1.570796326794897 -3.141592653589793  -0.3141592653589793 -1.570796326794897 -3.141592653589793  0 -1.570796326794897 -3.141592653589793  0.3141592653589789 -1.570796326794897 -3.141592653589793  0.6283185307179586 -1.570796326794897 -3.141592653589793  0.9424777960769379 -1.570796326794897 -3.141592653589793  1.256637061435917 -1.570796326794897 -3.141592653589793  1.570796326794897 -1.570796326794897 -3.141592653589793  1.884955592153876 -1.570796326794897 -3.141592653589793  2.199114857512855 -1.570796326794897 -3.141592653589793  2.513274122871834 -1.570796326794897 -3.141592653589793  2.827433388230814 -1.570796326794897 -3.141592653589793  3.141592653589793 -1.570796326794897 -3.141592653589793  -3.141592653589793 -1.256637061435917 -3.141592653589793  -2.827433388230814 -1.256637061435917 -3.141592653589793  -2.513274122871834 -1.256637061435917 -3.141592653589793  -2.199114857512855 -1.256637061435917 -3.141592653589793  -1.884955592153876 -1.256637061435917 -3.141592653589793  -1.570796326794897 -1.256637061435917 -3.141592653589793  -1.256637061435917 -1.256637061435917 -3.141592653589793  -0.9424777960769379 -1.256637061435917 -3.141592653589793  -0.6283185307179586 -1.256637061435917 -3.141592653589793  -0.3141592653589793 -1.256637061435917 -3.141592653589793  0 -1.256637061435917 -3.141592653589793  0.3141592653589789 -1.256637061435917 -3.141592653589793  0.6283185307179586 -1.256637061435917 -3.141592653589793  0.9424777960769379 -1.256637061435917 -3.141592653589793  1.256637061435917 -1.256637061435917 -3.141592653589793  1.570796326794897 -1.256637061435917 -3.141592653589793  1.884955592153876 -1.256637061435917 -3.141592653589793  2.199114857512855 -1.256637061435917 -3.141592653589793  2.513274122871834 -1.256637061435917 -3.141592653589793  2.827433388230814 -1.256637061435917 -3.141592653589793  3.141592653589793 -1.256637061435917 -3.141592653589793  -3.141592653589793 -0.9424777960769379 -3.141592653589793  -2.827433388230814 -0.9424777960769379 -3.141592653589793  -2.513274122871834 -0.9424777960769379 -3.141592653589793  -2.199114857512855 -0.9424777960769379 -3.141592653589793  -1.884955592153876 -0.9424777960769379 -3.141592653589793  -1.570796326794897 -0.9424777960769379 -3.141592653589793  -1.256637061435917 -0.9424777960769379 -3.141592653589793  -0.9424777960769379 -0.9424777960769379 -3.141592653589793  -0.6283185307179586 -0.9424777960769379 -3.141592653589793  -0.3141592653589793 -0.9424777960769379 -3.141592653589793  0 -0.9424777960769379 -3.141592653589793  0.3141592653589789 -0.9424777960769379 -3.141592653589793  0.6283185307179586 -0.9424777960769379 -3.141592653589793  0.9424777960769379 -0.9424777960769379 -3.141592653589793  1.256637061435917 -0.9424777960769379 -3.141592653589793  1.570796326794897 -0.9424777960769379 -3.141592653589793  1.884955592153876 -0.9424777960769379 -3.141592653589793  2.199114857512855 -0.9424777960769379 -3.141592653589793  2.513274122871834 -0.9424777960769379 -3.141592653589793  2.827433388230814 -0.9424777960769379 -3.141592653589793  3.141592653589793 -0.9424777960769379 -3.141592653589793  -3.141592653589793 -0.6283185307179586 -3.141592653589793  -2.827433388230814 -0.6283185307179586 -3.141592653589793  -2.513274122871834 -0.6283185307179586 -3.141592653589793  -2.19
[...]
<PointData  Scalars="f_10468"> 
<DataArray  type="Float64"  Name="f_10468"  format="ascii">1.4467196040656494e-01  -2.0579283729973068e-02  -1.3837335875688114e-01  -2.1721412731190860e-02  1.8271006350310221e-02  3.0562142352811392e-02  5.3057814571152773e-02  -4.9798436050773102e-04  5.5209216315547573e-02  -5.6828979616584889e-02  -1.4500633077252459e-01  -5.7441327397618314e-02  5.4712020475894137e-02  -9.4567654079644821e-04  5.2720187604921399e-02  3.0329812509997861e-02  1.8198890782691855e-02  -2.1486514429561867e-02  -1.3774277746385341e-01  -1.9683616639220039e-02  1.4467196040656494e-01  5.6756728078311856e-02  -1.8192130147729990e+00  -1.7213250833139915e+00  -1.4003903896136416e+00  -1.2653569153572972e+00  -1.2229153884329960e+00  -1.2208630232309854e+00  -1.3524181664647985e+00  -1.2242653986700200e+00  -2.1517621850679638e+00  1.9994406445575982e-02  1.8190282919993244e+00  1.3291821456270883e+00  1.3049580562539789e+00  1.1807276916677603e+00  1.1914889295717295e+00  1.2033440213176374e+00  1.3647499540605372e+00  1.6743918516737317e+00  2.1515673694578239e+00  5.6756728078311856e-02  -5.5012365656945124e-02  -1.3291692873738858e+00  -6.1917059287299692e-01  -2.8797255040850600e-01  -1.9436394909761534e-01  -2.0518369333468392e-01  -2.8815259951637684e-01  -4.3924395066529820e-01  -5.2908416630648913e-01  -1.6746816077001181e+00  1.3817990476938333e-01  1.7214105807141238e+00  6.1921476825986521e-01  4.8313096115361920e-01  2.8394902365127284e-01  2.3989713216726091e-01  2.1624789680764123e-01  3.4351374950067820e-01  5.2909343684455146e-01  1.2241656645857841e+00  -5.5012365656945124e-02  8.3335728058743324e-04  -1.3049391546311051e+00  -4.8312049771596582e-01  -2.9656182218473998e-01  -2.2899880690933902e-01  -2.5459526810129152e-01  -2.4882394130694818e-01  -3.7352114277215309e-01  -3.4354376487804750e-01  -1.3650033822056158e+00  2.1927688953365519e-02  1.4003386487176770e+00  2.8797307144145740e-01  2.9661585575784999e-01  2.1047004762633481e-01  2.2141725946114293e-01  2.4076257767920373e-01  3.7343230120635701e-01  4.3902782849368832e-01  1.3522906025520658e+00  8.3335728058743324e-04  -5.2641898993685723e-02  -1.1807574228852047e+00  -2.8391821049526705e-01  -2.1047766224684494e-01  -1.5451947865167456e-01  -1.5559632816279884e-01  -1.6040407553568045e-01  -2.4076874413421964e-01  -2.1625968980867236e-01  -1.2035880448853407e+00  -1.7762058093683340e-02  1.2651570418416331e+00  1.9438528712111230e-01  2.2905390181897775e-01  1.5454840745929713e-01  1.6464096276822585e-01  1.6045965553939157e-01  2.4881326603189791e-01  2.8802953801609349e-01  1.2206847377388599e+00  -5.2641898993685723e-02  -3.0136717951219853e-02  -1.1915868454889080e+00  -2.3986696195082241e-01  -2.2135730170179099e-01  -1.6455985495385475e-01  -1.4448366814910302e-01  -1.6454462150980340e-01  -2.2137261619323881e-01  -2.3988698342632983e-01  -1.1916771517970002e+00  -2.9891875324094472e-02  1.2226518047053305e+00  2.0514674985839687e-01  2.5461098970154267e-01  1.5568044690836713e-01  1.4455598696648761e-01  1.5562497698999359e-01  2.5460124776823551e-01  2.0509926851066590e-01  1.2227262193218096e+00  -3.0136717951219853e-02  -1.7927551096844480e-02  -1.2035179908682216e+00  -2.1623431862989875e-01  -2.4075234979778762e-01  -1.6041889681642740e-01  -1.5556843879047313e-01  -1.5449410718731432e-01  -2.1043714944505737e-01  -2.8394213366534338e-01  -1.1808492792376928e+00  -5.2340548863100606e-02  1.2205558168809127e+00  2.8811792015836257e-01  2.4885462389559640e-01  1.6051595179714634e-01  1.6464602024951105e-01  1.5458351802427661e-01  2.2907875448429568e-01  1.9435288479827922e-01  1.2652279597180369e+00  -1.7927551096844480e-02  2.1810508208258340e-02  -1.3649144199382821e+00  -3.4353811149987945e-01  -3.7342959970221967e-01  -2.4883292811544602e-01  -2.5455819265709045e-01  -2.2899198565723319e-01  -2.9656138142248822e-01  -4.8314859315491376e-01  -1.3050089589013361e+00  1.2166906860007058e-03  1.3521994292171806e+00  4.3908314379206531e-01  3.7346773178242298e-01  2.4081948417123192e-01  2.2145200878122140e-01  2.1052155332509545e-01  2.9663192861241394e-01  2.8795804019373011e-01  1.4004487748499312e+00  2.1810508208258340e-02  1.3803784401894359e-01  -1.6746006901895534e+00  -5.2916083377272205e-01  -4.3914375719725701e-01  -2.8817038252945576e-01  -2.0519227356596462e-01  -1.9437711376478972e-01  -2.8794904132903704e-01  -6.1929451312831574e-01  -1.3291490640139556e+00  -5.4605050673476020e-02  1.2241172785954939e+00  5.2903212572029767e-01  3.4348185413906929e-01  2.1628276298230467e-01  2.3995753167808426e-01  2.8400621908937668e-01  4.8321798523567550e-01  6.1935263930769258e-01  1.7214512449597417e+00  1.3803784401894359e-01  1.9892708093792618e-02  -2.1515179919901630e+00  -1.2241533803204290e+00  -1.3523401988786259e+00  -1.2207785913421763e+00  -1.2229059977421777e+00  -1.2654075706061310e+00  -1.4006048752560634e+00  -1.7215774340013110e+00  -1.8190306496272204e+00  5.7235312989673236e-02  2.1516491865514586e+00  1.6745792621500895e+00  1.3649576302659681e+00  1.2035957330749936e+00  1.1917003129456554e+00  1.1808919948723240e+00  1.3050066233109432e+00  1.3291389414088344e+00  1.8189028530069615e+00  1.9892708093792618e-02  -1.4483692023835690e-01  -5.6565848710246308e-02  5.5262899227347360e-02  -6.0531664315674157e-04  5.2859787320790906e-02  3.0374007206603472e-02  1.8138976374789905e-02  -2.1648604500427125e-02  -1.3799758515201355e-01  -1.9995805494835671e-02  1.4459556697435638e-01  -2.0417249717358962e-02  -1.3829956441595417e-01  -2.1908711331995918e-02  1.7851774658031689e-02  2.9979507488335323e-02  5.2357759238580187e-02  -1.2615841025837419e-03  5.4510950166354162e-02  -5.7473954312051483e-02  -1.4483692023835690e-01  1.9644902971104345e-02  1.8192048514878221e+00  1.3290953176064355e+00  1.3048644950863990e+00  1.1806515169128995e+00  1.1914625350035377e+00  1.2034005200009825e+00  1.3648206374919936e+00  1.6745122523508704e+00  2.1515309270042220e+00  5.6785982597200871e-02  -1.8190318544226818e+00  -1.7212972524812102e+00  -1.4003585843323922e+00  -1.2652065896442886e+00  -1.2226897216504728e+00  -1.2205844733913487e+00  -1.3521726922953541e+00  -1.2241409525760607e+00  -2.1517022522228877e+00  1.9644902971104345e-02  1.3750615501851052e-01  1.7215414413689358e+00  6.1923729786698434e-01  4.8309982138689977e-01  2.8395872301778158e-01  2.3988174259892797e-01  2.1624215497361907e-01  3.4351149159362659e-01  5.2911284186366947e-01  1.2242275809320196e+00  -5.5114074856517842e-02  -1.3290279078819096e+00  -6.1915418653932031e-01  -2.8790739269941884e-01  -1.9430990543184498e-01  -2.0514556247119606e-01  -2.8816667116929701e-01  -4.3910242782166203e-01  -5.2905619137800519e-01  -1.6744082263108264e+00  1.3750615501851052e-01  2.1313135769531220e-02  1.4006045828366147e+00  2.8794122064904892e-01  2.9660391212737336e-01  2.1050896173868100e-01  2.2142430830719018e-01  2.4080459493334153e-01  3.7345122332185798e-01  4.3911023406018285e-01  1.3522551802144309e+00  6.1281147633125168e-04  -1.3048359906805984e+00  -4.8310082809644561e-01  -2.9654682141811128e-01  -2.2897885881057517e-01  -2.5452259424645818e-01  -2.4884366030912056e-01  -3.7344581140327332e-01  -3.4350779585354430e-01  -1.3648120579334588e+00  2.1313135769531220e-02  -1.8284102050080662e-02  1.2653903924092369e+00  1.9436968725887990e-01  2.2903515917720901e-01  1.5459649742856565e-01  1.6462571003373358e-01  1.6052103258421629e-01  2.4890673516148831e-01  2.8808563097228101e-01  1.2207002691241695e+00  -5.2943329776244975e-02  -1.1806257915603064e+00  -2.8391566711155874e-01  -2.1044097716968296e-01  -1.5447208215444616e-01  -1.5552215119164250e-01  -1.6040047663468873e-01  -2.4071168864485354e-01  -2.1620391040900128e-01  -1.2034095756150576e+00  -1.8284102050080662e-02  -3.0367095075535786e-02  1.2228876701045182e+00  2.0516162880716382e-01  2.5460985216900306e-01  1.5565353814437685e-01  1.4455185746548438e-01  1.5563614001028367e-01  2.5463449815370409e-01  2.0524443465832640e-01  1.2227692185189145e+00  -3.0522691150860922e-02  -1.1913933030922255e+00  -2.3985017613859336e-01  -2.2134916239111882e-01  -1.6456148845659088e-01  -1.4444978464789432e-01  -1.6455838961826208e-01  -2.2132837511438572e-01  -2.3982138798415256e-01  -1.1915541409500618e+00  -3.0367095075535786e-02  -5.2725310942382891e-02  1.2207501559234639e+00  2.8817074327138165e-01  2.4882791096588319e-01  1.6051781727699860e-01  1.6467540249746895e-01  1.5462625192545951e-01  2.2905028346266654e-01  1.9448973675424619e-01  1.2652579555506858e+00  -1.8344539049947414e-02  -1.2033216076436575e+00  -2.1624824612766377e-01  -2.4079047938742579e-01  -1.6045862333052022e-01  -1.5561238771981969e-01  -1.5450393095983114e-01  -2.1049715365278712e-01  -2.8393453398180202e-01  -1.1808090596244358e+00  -5.2725310942382891e-02  9.1421911172685029e-04  1.3523154480849169e+00  4.3919417059455929e-01  3.7344130573041678e-01  2.4079961210998257e-01  2.2145434140288206e-01  2.1056818721416998e-01  2.9667174752426928e-01  2.8803417612455323e-01  1.4005176432262396e+00  2.1327458233144518e-02  -1.3647257178213830e+00  -3.4356813173338263e-01  -3.7351639977227719e-01  -2.4890932174608535e-01  -2.5464019369321145e-01  -2.2906552831761171e-01  -2.9660859161507713e-01  -4.8319678084169931e-01  -1.3050365850895225e+00  9.1421911172685029e-04  -5.4788440537041544e-02  1.2242263148459742e+00  5.2912874236302510e-01  3.4353102093287252e-01  2.1628191387329507e-01  2.3993910700485135e-01  2.8403394255338621e-01  4.8318244941028976e-01  6.1930150651082660e-01  1.7214693429276113e+00  1.3762762298280634e-01  -1.6743245205830153e+00  -5.2906577894232298e-01  -4.3911562997331544e-01  -2.8819576354396331e-01  -2.0521898677481204e-01  -1.9437400215682896e-01  -2.8796061614461771e-01  -6.1931065814393660e-01  -1.3292287087585704e+00  -5.4788440537041544e-02  5.7245991288974986e-02  2.1518498593190989e+00  1.6749044710522598e+00  1.3650550688496992e+00  1.2035478994366564e+00  1.1916176163805661e+00  1.1808271431194488e+00  1.3050460470349881e+00  1.3292564511587390e+00  1.8192307004550414e+00  1.9691298127730721e-02  -2.1517685327699465e+00  -1.2241874412156102e+00  -1.3522815860868191e+00  -1.2207720659988266e+00  -1.2229163022561558e+00  -1.2654427248252256e+00  -1.4006375178457455e+00  -1.7216536990304909e+00  -1.8190748941152097e+00  5.7245991288974986e-02  1.4467196040656494e-01  -2.0579283729973068e-02  -1.3837335875688114e-01  -2.1721412731190860e-02  1.8271006350310221e-02  3.0562142352811392e-02  5.3057814571152773e-02  -4.9798436050773102e-04  5.5209216315547573e-02  -5.6828979616584889e-02  -1.4500633077252459e-01  -5.7441327397618314e-02  5.4712020475894137e-02  -9.4567654079644821e-04  5.2720187604921399e-02  3.0329812509997861e-02  1.8198890782691855e-02  -2.1486514429561867e-02  -1.3774277746385341e-01  -1.9683616639220039e-02  1.4467196040656494e-01  1.2720830345294071e-01  -4.5251372377236448e-02  -1.4981660394158583e-01  -1.5805942879136940e-02  8.3516497828362967e-03  -2.2644668149084039e-03  -1.3881727149744305e-02  -4.2420411895455562e-02  1.3626647101235253e-02  -8.2163330783606124e-03  -1.2735845363230680e-01  -3.4134789015918057e-02  1.2242625352032771e-01  2.8944755520776789e-02  7.1903103909531182e-02  4.4046587398117523e-02  3.2461262822822842e-02  6.3450028273360345e-03  -1.1271010834573533e-01  -1.7120271661997182e-02  1.2720830345294071e-01  3.3301843802782324e-02  -1.7629428576407926e+00  -1.6189854737855540e+00  -1.2553338423262250e+00  -1.0894330312312985e+00  -1.0437214038390912e+00  -1.0393834129581156e+00  -1.2129832553820765e+00  -1.1702285304128619e+00  -1.9704026325056976e+00  4.4716133597255826e-02  1.7627227859105870e+00  1.2254719193010748e+00  1.1445638069656119e+00  9.6316818572939178e-01  9.8736942568975694e-01  1.0600315770171416e+00  1.2867680995510666e+00  1.6079403870223639e+00  1.9750083587934462e+00  3.3301843802782324e-02  -1.2297972755078299e-01  -1.2254126386848834e+00  -4.8480743925540676e-01  -2.5478996879012400e-01  -1.9518114673434805e-01  -1.9784961247088309e-01  -2.0111810993670115e-01  -3.5437649822301570e-01  -4.5666443936131285e-01  -1.5437171636097011e+00  1.4970890672588982e-01  1.6190346700201375e+00  4.8490645477971117e-01  3.6005706317182146e-01  1.8098715925969616e-01  2.0705005106893951e-01  2.2442344587390983e-01  3.8549495883148865e-01  4.1761832174112196e-01  1.1180729678849579e+00  -1.2297972755078299e-01  -2.9319338802663856e-02  -1.1445149998925273e+00  -3.6004726297289125e-01  -3.6534246124888137e-01  -4.4336502289863855e-01  -4.7258842608664064e-01  -4.2323158905631264e-01  -4.1213805569057982e-01  -3.6611824621977407e-01  -1.2368976673793315e+00  1.6073633456775864e-02  1.2552784689061791e+00  2.5475206017438240e-01  3.6533449407078145e-01  3.7443810253773957e-01  4.4336578543015653e-01  4.6746413796171271e-01  4.3889555184954071e-01  3.4600302760420532e-01  1.2169399930313718e+00  -2.9319338802663856e-02  -7.2009760929542102e-02  -9.6319811240502984e-01  -1.8101320315661856e-01  -3.7441297959898184e-01  -4.7647906578103860e-01  -5.0715604245332158e-01  -4.6971742169246644e-01  -4.2917884948968504e-01  -2.7443380903698350e-01  -1.0615783482012258e+00  -7.8186747644417628e-03  1.0892295497313211e+00  1.9510544431719101e-01  4.4335826864937788e-01  4.7652376239509464e-01  5.3731225307236063e-01  4.7569753528593384e-01  4.2124676365189145e-01  2.3590061721144948e-01  1.0430198269995159e+00  -7.2009760929542102e-02  -4.3975326068543714e-02  -9.8748701303524911e-01  -2.0699747564854731e-01  -4.4322871642511275e-01  -5.3716423909554067e-01  -5.5434575164492494e-01  -5.3577857652070882e-01  -4.8039509596316798e-01  -2.7613880769611360e-01  -1.0145708397337032e+00  2.9556090723752266e-03  1.0434239611895233e+00  1.9780237453290159e-01  4.7262772913877843e-01  5.0722520381737801e-01  5.5448290758338659e-01  5.4015298405697931e-01  4.6697526343236762e-01  2.2189901011303176e-01  1.0278496287485239e+00  -4.3975326068543714e-02  -3.2241114112285710e-02  -1.0602205320744944e+00  -2.2436118509123293e-01  -4.6732487017019048e-01  -4.7560841384225833e-01  -5.4006893367904185e-01  -5.0385442921675982e-01  -4.4371231395706912e-01  -2.6610324162719540e-01  -1.0051521298625428e+00  1.4612251687020392e-02  1.0390785418688269e+00  2.0103399591312412e-01  4.2322182002846254e-01  4.6982145835359074e-01  5.3587304729306451e-01  5.0395115432526494e-01  4.4211539892492302e-01  2.6232909714857322e-01  1.1170616575063443e+00  -3.2241114112285710e-02  -6.0064545018975657e-03  -1.2869736515886507e+00  -3.8546970347383663e-01  -4.3886298335324186e-01  -4.2120213447845578e-01  -4.6688690275057571e-01  -4.4196934088058937e-01  -4.5748764839192885e-01  -4.1419092105001065e-01  -1.1294640866289971e+00  4.3136420001498678e-02  1.2127577633147906e+00  3.5422689725642681e-01  4.1209588989043666e-01  4.2921392138967007e-01  4.8043232118503559e-01  4.4380045746767183e-01  4.5759533005962383e-01  3.9595719337135132e-01  1.2822296230108812e+00  -6.0064545018975657e-03  1.1309254313996696e-01  -1.6082117539919731e+00  -4.1767539893294786e-01  -3.4618373645078032e-01  -2.3599610055187123e-01  -2.2196364160673662e-01  -2.6231775493739012e-01  -3.9593054776995618e-01  -5.7815237648409923e-01  -1.1952253873902019e+00  -1.3036596433910329e-02  1.1700918817914854e+00  4.5656345629888168e-01  3.6603077109771220e-01  2.7440589168037349e-01  2.7613004674492003e-01  2.6610886483262119e-01  4.1419794063477594e-01  5.7819062991158776e-01  1.5233353729564392e+00  1.1309254313996696e-01  1.7532116950513786e-02  -1.9749613546902378e+00  -1.1180541643101372e+00  -1.2169774065345389e+00  -1.0430996824227534e+00  -1.0279556943975046e+00  -1.1171592604636178e+00  -1.2822533073880220e+00  -1.5233344690021502e+00  -1.5983015981648605e+00  8.6466236583100965e-03  1.9703864799668536e+00  1.5435946356767234e+00  1.2368852217445760e+00  1.0616091006233530e+00  1.0146349544133204e+00  1.0051910288948005e+00  1.1294711783631866e+00  1.1952302401000525e+00  1.5981981027039971e+00  1.7532116950513786e-02  -1.2722006784722778e-01  -3.3305658053211125e-02  1.2299889065891442e-01  2.9353680468103729e-02  7.2080929281957154e-02  4.4057473459373719e-02  3.2328739727993674e-02  6.0769887073837065e-03  -1.1312286442577976e-01  -1.7578265224488479e-02  1.2701040926353474e-01  -4.5089409805460660e-02  -1.4987183453563405e-01  -1.6145920904557222e-02  7.8199023346047260e-03  -2.9693936936967301e-03  -1.4663251498625568e-02  -4.3260592552524242e-02  1.2915730863422945e-02  -8.8191994614940459e-03  -1.2722006784722778e-01  4.4346144305986081e-02  1.7628868490799521e+00  1.2253924936046729e+00  1.1445160013260789e+00  9.6314793017054279e-01  9.8741237557080264e-01  1.0601446546977171e+00  1.2869280274370378e+00  1.6081311775837319e+00  1.9749995180993858e+00  3.3445638055243178e-02  -1.7628165249728467e+00  -1.6189902397317608e+00  -1.2553029113396066e+00  -1.0892795490939238e+00  -1.0434692313716145e+00  -1.0391003708816688e+00  -1.2127040080230573e+00  -1.1700566660744707e+00  -1.9704455487147030e+00  4.4346144305986081e-02  1.4906359495776247e-01  1.6192653744896714e+00  4.8488504746577971e-01  3.6006157169923869e-01  1.8101113281337311e-01  2.0703701021704185e-01  2.2442609743371078e-01  3.8553353729337508e-01  4.1766568027524492e-01  1.1181026328379420e+00  -1.2284411639326344e-01  -1.2254298986251155e+00  -4.8487438768245078e-01  -2.5475670218256785e-01  -1.9515295984083705e-01  -1.9786209952764935e-01  -2.0111754105610616e-01  -3.5425444755583052e-01  -4.5653935295800424e-01  -1.5434169208056352e+00  1.4906359495776247e-01  1.5496604947343692e-02  1.2555903952951777e+00  2.5473378919382839e-01  3.6529220941017271e-01  3.7437317785038776e-01  4.4320784784061795e-01  4.6740625527404017e-01  4.3887437449893185e-01  3.4610634064919654e-01  1.2169069454602581e+00  -2.9235991085184581e-02  -1.1445548509956314e+00  -3.6005629509934045e-01  -3.6527716878630251e-01  -4.4333295316361465e-01  -4.7260420712914425e-01  -4.2327462894683615e-01  -4.1213050508319504e-01  -3.6604710415060038e-01  -1.2366713081383980e+00  1.5496604947343692e-02  -8.2799683131441742e-03  1.0894706256202360e+00  1.9509228189990593e-01  4.4337785350491243e-01  4.7642751085472124e-01  5.3723471690868885e-01  4.7561760117604424e-01  4.2121251829931833e-01  2.3590952176541780e-01  1.0430356469010353e+00  -7.2026773895667931e-02  -9.6317921828499031e-01  -1.8100565071024893e-01  -3.7435663511589590e-01  -4.7641949389857546e-01  -5.0712095558459269e-01  -4.6975501497865485e-01  -4.2915417001675865e-01  -2.7433760631165427e-01  -1.0613727538452522e+00  -8.2799683131441742e-03  2.5934556984348982e-03  1.0436503788424818e+00  1.9773339814703844e-01  4.7258774634367945e-01  5.0723480174532909e-01  5.5436127611379526e-01  5.4017596061059769e-01  4.6688667287328445e-01  2.2200128315629114e-01  1.0278066983484113e+00  -4.4084426016100811e-02  -9.8737865467443686e-01  -2.0703019917943927e-01  -4.4324062956589827e-01  -5.3711105588278363e-01  -5.5428238834086518e-01  -5.3570867740667183e-01  -4.8029055184096231e-01  -2.7597938374335612e-01  -1.0144165796368727e+00  2.5934556984348982e-03  1.4336025126638858e-02  1.0392933364028807e+00  2.0099300916859120e-01  4.2324417208715315e-01  4.6977781226961746e-01  5.3594190264857822e-01  5.0386198343561239e-01  4.4211317250082161e-01  2.6236266205499281e-01  1.1170943343896165e+00  -3.2437143855182225e-02  -1.0600452830580838e+00  -2.2448543648006253e-01  -4.6738104900716271e-01  -4.7558829112929130e-01  -5.4003155242248935e-01  -5.0378697889345714e-01  -4.4361843703970394e-01  -2.6598229203455703e-01  -1.0051124023617253e+00  1.4336025126638858e-02  4.2914625185899585e-02  1.2128666222617093e+00  3.5426277566503583e-01  4.1208622659837263e-01  4.2921162964699738e-01  4.8043435390925859e-01  4.4380455390254053e-01  4.5757998410428391e-01  3.9601188989988567e-01  1.2822806194693399e+00  -6.3322597406499856e-03  -1.2867733760245481e+00  -3.8555149340228395e-01  -4.3895145274923614e-01  -4.212461383755155