<?xml version="1.0"?>
<VTKFile type="UnstructuredGrid"  version="0.1"  >
<UnstructuredGrid>
<Piece  NumberOfPoints="2197" NumberOfCells="10368">
<Points>
<DataArray  type="Float64"  NumberOfComponents="3"  format="ascii">-3.141592653589793 -3.141592653589793 -3.141592653589793  -2.617993877991494 -3.141592653589793 -3.141592653589793  -2.094395102393196 -3.141592653589793 -3.141592653589793  -1.570796326794897 -3.141592653589793 -3.141592653589793  -1.047197551196598 -3.141592653589793 -3.141592653589793  -0.5235987755982987 -3.141592653589793 -3.141592653589793  0 -3.141592653589793 -3.141592653589793  0.5235987755982987 -3.141592653589793 -3.141592653589793  1.047197551196597 -3.141592653589793 -3.141592653589793  1.570796326794897 -3.141592653589793 -3.141592653589793  2.094395102393196 -3.141592653589793 -3.141592653589793  2.617993877991494 -3.141592653589793 -3.141592653589793  3.141592653589793 -3.141592653589793 -3.141592653589793  -3.141592653589793 -2.617993877991494 -3.141592653589793  -2.617993877991494 -2.617993877991494 -3.141592653589793  -2.094395102393196 -2.617993877991494 -3.141592653589793  -1.570796326794897 -2.617993877991494 -3.141592653589793  -1.047197551196598 -2.617993877991494 -3.141592653589793  -0.5235987755982987 -2.617993877991494 -3.141592653589793  0 -2.617993877991494 -3.141592653589793  0.5235987755982987 -2.617993877991494 -3.141592653589793  1.047197551196597 -2.617993877991494 -3.141592653589793  1.570796326794897 -2.617993877991494 -3.141592653589793  2.094395102393196 -2.617993877991494 -3.141592653589793  2.617993877991494 -2.617993877991494 -3.141592653589793  3.141592653589793 -2.617993877991494 -3.141592653589793  -3.141592653589793 -2.094395102393196 -3.141592653589793  -2.617993877991494 -2.094395102393196 -3.141592653589793  -2.094395102393196 -2.094395102393196 -3.141592653589793  -1.570796326794897 -2.094395102393196 -3.141592653589793  -1.047197551196598 -2.094395102393196 -3.141592653589793  -0.5235987755982987 -2.094395102393196 -3.141592653589793  0 -2.094395102393196 -3.141592653589793  0.5235987755982987 -2.094395102393196 -3.141592653589793  1.047197551196597 -2.094395102393196 -3.141592653589793  1.570796326794897 -2.094395102393196 -3.141592653589793  2.094395102393196 -2.094395102393196 -3.141592653589793  2.617993877991494 -2.094395102393196 -3.141592653589793  3.141592653589793 -2.094395102393196 -3.141592653589793  -3.141592653589793 -1.570796326794897 -3.141592653589793  -2.617993877991494 -1.570796326794897 -3.141592653589793  -2.094395102393196 -1.570796326794897 -3.141592653589793  -1.570796326794897 -1.570796326794897 -3.141592653589793  -1.047197551196598 -1.570796326794897 -3.141592653589793  -0.5235987755982987 -1.570796326794897 -3.141592653589793  0 -1.570796326794897 -3.141592653589793  0.5235987755982987 -1.570796326794897 -3.141592653589793  1.047197551196597 -1.570796326794897 -3.141592653589793  1.570796326794897 -1.570796326794897 -3.141592653589793  2.094395102393196 -1.570796326794897 -3.141592653589793  2.617993877991494 -1.570796326794897 -3.141592653589793  3.141592653589793 -1.570796326794897 -3.141592653589793  -3.141592653589793 -1.047197551196598 -3.141592653589793  -2.617993877991494 -1.047197551196598 -3.141592653589793  -2.094395102393196 -1.047197551196598 -3.141592653589793  -1.570796326794897 -1.047197551196598 -3.141592653589793  -1.047197551196598 -1.047197551196598 -3.141592653589793  -0.5235987755982987 -1.047197551196598 -3.141592653589793  0 -1.047197551196598 -3.141592653589793  0.5235987755982987 -1.047197551196598 -3.141592653589793  1.047197551196597 -1.047197551196598 -3.141592653589793  1.570796326794897 -1.047197551196598 -3.141592653589793  2.094395102393196 -1.047197551196598 -3.141592653589793  2.617993877991494 -1.047197551196598 -3.141592653589793  3.141592653589793 -1.047197551196598 -3.141592653589793  -3.141592653589793 -0.5235987755982987 -3.141592653589793  -2.617993877991494 -0.5235987755982987 -3.141592653589793  -2.094395102393196 -0.5235987755982987 -3.141592653589793  -1.570796326794897 -0.5235987755982987 -3.141592653589793  -1.047197551196598 -0.5235987755982987 -3.141592653589793  -0.5235987755982987 -0.5235987755982987 -3.141592653589793  0 -0.5235987755982987 -3.141592653589793  0.5235987755982987 -0.5235987755982987 -3.141592653589793  1.047197551196597 -0.5235987755982987 -3.141592653589793  1.570796326794897 -0.5235987755982987 -3.141592653589793  2.094395102393196 -0.5235987755982987 -3.141592653589793  2.617993877991494 -0.5235987755982987 -3.141592653589793  3.141592653589793 -0.5235987755982987 -3.141592653589793  -3.141592653589793 0 -3.141592653589793  -2.617993877991494 0 -3.141592653589793  -2.094395102393196 0 -3.141592653589793  -1.570796326794897 0 -3.141592653589793  -1.047197551196598 0 -3.141592653589793  -0.5235987755982987 0 -3.141592653589793  0 0 -3.141592653589793  0.5235987755982987 0 -3.141592653589793  1.047197551196597 0 -3.141592653589793  1.570796326794897 0 -3.141592653589793  2.094395102393196 0 -3.141592653589793  2.617993877991494 0 -3.141592653589793  3.141592653589793 0 -3.141592653589793  -3.141592653589793 0.5235987755982987 -3.141592653589793  -2.617993877991494 0.5235987755982987 -3.141592653589793  -2.094395102393196 0.5235987755982987 -3.141592653589793  -1.570796326794897 0.5235987755982987 -3.141592653589793  -1.047197551196598 0.5235987755982987 -3.141592653589793  -0.5235987755982987 0.5235987755982987 -3.141592653589793  0 0.5235987755982987 -3.141592653589793  0.5235987755982987 0.5235987755982987 -3.141592653589793  1.047197551196597 0.5235987755982987 -3.141592653589793  1.570796326794897 0.5235987755982987 -3.141592653589793  2.094395102393196 0.5235987755982987 -3.141592653589793  2.617993877991494 0.5235987755982987 -3.141592653589793  3.141592653589793 0.5235987755982987 -3.141592653589793  -3.141592653589793 1.047197551196597 -3.141592653589793  -2.617993877991494 1.047197551196597 -3.141592653589793  -2.094395102393196 1.047197551196597 -3.141592653589793  -1.570796326794897 1.047197551196597 -3.141592653589793  -1.047197551196598 1.047197551196597 -3.141592653589793  -0.5235987755982987 1.047197551196597 -3.141592653589793  0 1.047197551196597 -3.141592653589793  0.5235987755982987 1.047197551196597 -3.141592653589793  1.047197551196597 1.047197551196597 -3.141592653589793  1.570796326794897 1.047197551196597 -3.141592653589793  2.094395102393196 1.047197551196597 -3.141592653589793  2.617993877991494 1.047197551196597 -3.141592653589793  3.141592653589793 1.047197551196597 -3.141592653589793  -3.141592653589793 1.570796326794897 -3.141592653589793  -2.617993877991494 1.570796326794897 -3.141592653589793  -2.094395102393196 1.570796326794897 -3.141592653589793  -1.570796326794897 1.570796326794897 -3.141592653589793  -1.047197551196598 1.570796326794897 -3.141592653589793  -0.5235987755982987 1.570796326794897 -3.141592653589793  0 1.570796326794897 -3.141592653589793  0.5235987755982987 1.570796326794897 -3.141592653589793  1.047197551196597 1.570796326794897 -3.141592653589793  1.570796326794897 1.570796326794897 -3.141592653589793  2.094395102393196 1.570796326794897 -3.141592653589793  2.617993877991494 1.570796326794897 -3.141592653589793  3.141592653589793 1.570796326794897 -3.141592653589793  -3.141592653589793 2.094395102393196 -3.141592653589793  -2.617993877991494 2.094395102393196 -3.141592653589793  -2.094395102393196 2.094395102393196 -3.141592653589793  -1.570796326794897 2.094395102393196 -3.141592653589793  -1.047197551196598 2.094395102393196 -3.141592653589793  -0.5235987755982987 2.094395102393196 -3.141592653589793  0 2.094395102393196 -3.141592653589793  0.5235987755982987 2.094395102393196 -3.141592653589793  1.047197551196597 2.094395102393196 -3.141592653589793  1.570796326794897 2.094395102393196 -3.141592653589793  2.094395102393196 2.094395102393196 -3.141592653589793  2.617993877991494 2.094395102393196 -3.141592653589793  3.141592653589793 2.094395102393196 -3.141592653589793  -3.141592653589793 2.617993877991494 -3.141592653589793  -2.617993877991494 2.617993877991494 -3.141592653589793  -2.094395102393196 2.617993877991494 -3.141592653589793  -1.570796326794897 2.617993877991494 -3.141592653589793  -1.047197551196598 2.617993877991494 -3.141592653589793  -0.5235987755982987 2.617993877991494 -3.141592653589793  0 2.617993877991494 -3.141592653589793  0.5235987755982987 2.617993877991494 -3.141592653589793  1.047197551196597 2.617993877991494 -3.141592653589793  1.570796326794897 2.617993877991494 -3.141592653589793  2.094395102393196 2.617993877991494 -3.141592653589793  2.617993877991494 2.617993877991494 -3.141592653589793  3.141592653589793 2.617993877991494 -3.141592653589793  -3.141592653589793 3.141592653589793 -3.141592653589793  -2.617993877991494 3.141592653589793 -3.141592653589793  -2.094395102393196 3.141592653589793 -3.141592653589793  -1.570796326794897 3.141592653589793 -3.141592653589793  -1.047197551196598 3.141592653589793 -3.141592653589793  -0.5235987755982987 3.141592653589793 -3.141592653589793  0 3.141592653589793 -3.141592653589793  0.5235987755982987 3.141592653589793 -3.141592653589793  1.047197551196597 3.141592653589793 -3.141592653589793  1.570796326794897 3.141592653589793 -3.141592653589793  2.094395102393196 3.141592653589793 -3.141592653589793  2.617993877991494 3.141592653589793 -3.141592653589793  3.141592653589793 3.141592653589793 -3.141592653589793  -3.141592653589793 -3.141592653589793 -2.617993877991494  -2.617993877991494 -3.141592653589793 -2.617993877991494  -2.094395102393196 -3.141592653589793 -2.617993877991494  -1.570796326794897 -3.141592653589793 -2.617993877991494  -1.047197551196598 -3.141592653589793 -2.617993877991494  -0.5235987755982987 -3.141592653589793 -2.617993877991494  0 -3.141592653589793 -2.617993877991494  0.5235987755982987 -3.141592653589793 -2.617993877991494  1.047197551196597 -3.141592653589793 -2.617993877991494  1.570796326794897 
[...]
<PointData  Scalars="f_49172"> 
<DataArray  type="Float64"  Name="f_49172"  format="ascii">5.3012301522970630e-02  4.4323845218329092e-02  2.3043628456192160e-02  -6.9266248140063662e-04  -1.9661802994243881e-02  -4.2830411533957509e-02  -5.2113925900794819e-02  -4.1968780019434000e-02  -2.4584223263216475e-02  -1.6597593827768116e-03  2.0479777173251421e-02  4.1398526727585636e-02  5.3012301522970630e-02  4.5709191638289605e-02  -5.0925665665850206e-01  -9.1158317357109797e-01  -1.0669252114118475e+00  -9.5455808017721588e-01  -5.8240644797536423e-01  -4.4014624632375814e-02  5.1008350870881780e-01  9.1351607375316890e-01  1.0692889984810365e+00  9.5095712501734986e-01  5.7814477804963160e-01  4.5709191638289605e-02  2.0860281674902583e-02  -9.1450390144310656e-01  -1.5844747675574733e+00  -1.8376148166362873e+00  -1.6122179020012202e+00  -9.4999262027671649e-01  -2.0608922171856593e-02  9.0864960070105172e-01  1.5842145804770436e+00  1.8374596374209640e+00  1.6150679559241223e+00  9.5557365721222576e-01  2.0860281674902583e-02  -6.7226952789739883e-04  -1.0665929649788624e+00  -1.8401364945594372e+00  -2.1168951183545812e+00  -1.8371497486661172e+00  -1.0683633193042867e+00  -3.3901447650495180e-06  1.0670067694014620e+00  1.8368344947195703e+00  2.1125903941906015e+00  1.8349050425077196e+00  1.0662476968082577e+00  -6.7226952789739883e-04  -2.0572584676249731e-02  -9.5018948297152805e-01  -1.6152121977350877e+00  -1.8360145307756865e+00  -1.5851144683052731e+00  -9.1440346765304514e-01  2.1328800733380591e-02  9.5574145150332246e-01  1.6173054023434437e+00  1.8339189270870258e+00  1.5839572264241750e+00  9.0827799167548207e-01  -2.0572584676249731e-02  -4.2346987960395890e-02  -5.8334419421437977e-01  -9.5374022007414727e-01  -1.0673255239466399e+00  -9.0792397332339525e-01  -5.0856267952464118e-01  4.4125302994258438e-02  5.8179551347956315e-01  9.4859995797484542e-01  1.0697806483377954e+00  9.1315665531879331e-01  5.0863291936174548e-01  -4.2346987960395890e-02  -4.9396431937628160e-02  -4.2500728517379266e-02  -2.1893069650349477e-02  2.6978815137233456e-04  2.3717068050424658e-02  4.0643233394359150e-02  5.1482387517971684e-02  4.0745232114640227e-02  2.4003698445128126e-02  -1.0182908545425186e-03  -2.1625990857646434e-02  -4.3220379419405548e-02  -4.9396431937628160e-02  -4.3149158262661511e-02  5.0780361263937535e-01  9.1364620045699430e-01  1.0715196545435022e+00  9.5014895509625208e-01  5.8165513760526111e-01  4.1949557119564468e-02  -5.0910550138679633e-01  -9.0942252196577000e-01  -1.0679163339425568e+00  -9.5204933583918949e-01  -5.8213662116941567e-01  -4.3149158262661511e-02  -2.2982974490610802e-02  9.1054630850557550e-01  1.5852881233261760e+00  1.8352436005122599e+00  1.6168430412393331e+00  9.5268635500645271e-01  2.1863705738812290e-02  -9.1485924014085895e-01  -1.5831889826422079e+00  -1.8387853208553315e+00  -1.6116002914333154e+00  -9.4965653037936237e-01  -2.2982974490610802e-02  4.9651118015660398e-04  1.0690890675291953e+00  1.8369979640726837e+00  2.1163040413904270e+00  1.8392721626992212e+00  1.0629017268113135e+00  8.0987154715892232e-04  -1.0692395080821138e+00  -1.8375033971626791e+00  -2.1147350429592406e+00  -1.8379710741823965e+00  -1.0685861881009218e+00  4.9651118015660398e-04  1.9666470479027358e-02  9.5315305159971786e-01  1.6173029985107621e+00  1.8344755345721704e+00  1.5823852339595377e+00  9.1147984405885918e-01  -2.4153919665930383e-02  -9.5082615879294041e-01  -1.6091334853260897e+00  -1.8373137580020629e+00  -1.5824434798459324e+00  -9.1241136441301640e-01  1.9666470479027358e-02  4.1249315666346681e-02  5.8327899126482319e-01  9.5077718882723494e-01  1.0673784655361021e+00  9.1572471427904523e-01  5.1058252854882524e-01  -4.4418475386332333e-02  -5.8047201822081995e-01  -9.5358648580763095e-01  -1.0680744241662463e+00  -9.0924376288037567e-01  -5.0851571644156290e-01  4.1249315666346681e-02  5.3012301522970630e-02  4.4323845218329092e-02  2.3043628456192160e-02  -6.9266248140063662e-04  -1.9661802994243881e-02  -4.2830411533957509e-02  -5.2113925900794819e-02  -4.1968780019434000e-02  -2.4584223263216475e-02  -1.6597593827768116e-03  2.0479777173251421e-02  4.1398526727585636e-02  5.3012301522970630e-02  4.6075311719357498e-02  2.2878399835142969e-02  -1.8743905599062557e-04  -2.3019903456306671e-02  -3.9300450751632597e-02  -5.0195315265059902e-02  -4.2269473698359414e-02  -2.5848297220006922e-02  3.3342995643965280e-03  2.4709343581771109e-02  4.2730723133013945e-02  5.1584899358386040e-02  4.6075311719357498e-02  2.1911044611151190e-02  -4.6024558648441960e-01  -8.1234191897281305e-01  -9.4812714319290148e-01  -8.4087574631099726e-01  -5.0102094387936158e-01  -2.6484920526718039e-02  4.6051272126819631e-01  8.1114338726966362e-01  9.4565236993976554e-01  8.3517073564417255e-01  5.0135527881553854e-01  2.1911044611151190e-02  -2.4286653531290958e-03  -8.1260308012334337e-01  -1.3952155173808762e+00  -1.6088089863954731e+00  -1.3995109192930815e+00  -8.1065988052754312e-01  1.6571821437274855e-03  8.0994623518973019e-01  1.3951649858982142e+00  1.6079412552701766e+00  1.3998406640609071e+00  8.1486107760483406e-01  -2.4286653531290958e-03  -2.4260376542476196e-02  -9.4747661060266886e-01  -1.6072848265412147e+00  -1.8368575967184602e+00  -1.5861719284843048e+00  -9.0615954842695690e-01  2.4154502944045825e-02  9.4783468451965958e-01  1.6091114266260933e+00  1.8380601800980798e+00  1.5815587422284030e+00  9.0443557721664303e-01  -2.4260376542476196e-02  -4.2886209585085822e-02  -8.3782226078990718e-01  -1.3997401166591383e+00  -1.5818624110793829e+00  -1.3564356303202161e+00  -7.6732281658409929e-01  4.1802167691688902e-02  8.3953047838531980e-01  1.3968226452187464e+00  1.5808178902817951e+00  1.3534866603267783e+00  7.6476264821894524e-01  -4.2886209585085822e-02  -4.9512132093634538e-02  -5.0206810817930725e-01  -8.1222960337897576e-01  -9.0660391454323230e-01  -7.6383807599534714e-01  -4.1658696456885569e-01  5.0722677362040967e-02  5.0181745055473592e-01  8.1136124414420696e-01  9.0892258598064324e-01  7.6838884280289277e-01  4.1579139138014876e-01  -4.9512132093634538e-02  -4.5507799511114048e-02  -2.2482035551321059e-02  1.5753459408980716e-03  2.5785138182521677e-02  4.2240950278466617e-02  5.0712243705000652e-02  4.4580045202977557e-02  2.4388807779148501e-02  3.2264530094806712e-04  -2.4185852852988399e-02  -4.1891489408441701e-02  -4.9490595549901761e-02  -4.5507799511114048e-02  -2.6019436973748183e-02  4.5774341953439579e-01  8.1306743683978244e-01  9.4541642780785662e-01  8.3830476668456866e-01  5.0111638289131832e-01  2.3554702495752585e-02  -4.6048582905469132e-01  -8.1073055907937774e-01  -9.4726740274902643e-01  -8.4014134329035484e-01  -5.0289898279103606e-01  -2.6019436973748183e-02  3.6918271454098456e-03  8.1174173146099371e-01  1.3932974264188900e+00  1.6097768747651195e+00  1.4001271372287472e+00  8.1456074674954693e-01  -5.5139259120657166e-03  -8.1050203722979486e-01  -1.3936748126809333e+00  -1.6092777574486716e+00  -1.3949237955260945e+00  -8.0977791873906158e-01  3.6918271454098456e-03  2.1960569164658172e-02  9.4951313431711015e-01  1.6083825803249765e+00  1.8393303784103696e+00  1.5786948163720551e+00  9.0617667884909603e-01  -2.5579874701280064e-02  -9.4833922894764910e-01  -1.6071480012436454e+00  -1.8373226171461072e+00  -1.5851284547475204e+00  -9.0667304526871251e-01  2.1960569164658172e-02  4.2992816593401977e-02  8.4009654559859337e-01  1.3984875905753973e+00  1.5825584393500303e+00  1.3553406943603985e+00  7.6712557293268502e-01  -4.5371500304438268e-02  -8.3656989128727011e-01  -1.3976965874511109e+00  -1.5843199181423020e+00  -1.3548057092569439e+00  -7.7053284907817587e-01  4.2992816593401977e-02  5.2408034970169028e-02  5.0514869011070473e-01  8.0748105026318606e-01  9.0784143839091336e-01  7.6862969152971505e-01  4.1469289296102424e-01  -4.6328101452528407e-02  -5.0265426889794118e-01  -8.0942301948232664e-01  -9.0489061306164886e-01  -7.6562027957226308e-01  -4.1727618443277487e-01  5.2408034970169028e-02  4.6075311719357498e-02  2.2878399835142969e-02  -1.8743905599062557e-04  -2.3019903456306671e-02  -3.9300450751632597e-02  -5.0195315265059902e-02  -4.2269473698359414e-02  -2.5848297220006922e-02  3.3342995643965280e-03  2.4709343581771109e-02  4.2730723133013945e-02  5.1584899358386040e-02  4.6075311719357498e-02  2.3164814629327204e-02  1.2968656893791541e-03  -2.3173800958723144e-02  -4.3215628064868866e-02  -4.8663071047400905e-02  -4.3988067747993756e-02  -2.4859239559846671e-02  1.1801318626143073e-03  2.5415964949671004e-02  3.9782542267605484e-02  4.8041309627310305e-02  3.9314079125347665e-02  2.3164814629327204e-02  2.9296249086030687e-03  -2.8942124518280377e-01  -4.9634903240992934e-01  -5.7559718161296858e-01  -4.9605372301556822e-01  -2.9169098110420077e-01  1.4128292796343968e-03  2.8641075807725014e-01  4.9658003438158393e-01  5.7500428583862617e-01  4.9910013846685597e-01  2.8769065061078464e-01  2.9296249086030687e-03  -2.3869775420603194e-02  -4.9742445985610284e-01  -8.3599280817953237e-01  -9.4815126958910834e-01  -8.1059327325743125e-01  -4.5375652504289210e-01  2.1543184571173806e-02  4.9945352653849079e-01  8.3447340421967520e-01  9.4766437788679325e-01  8.0958817505748615e-01  4.5183363719781455e-01  -2.3869775420603194e-02  -4.1466863192838890e-02  -5.7365855909978880e-01  -9.4796969749469340e-01  -1.0677102646966217e+00  -9.0405645884294872e-01  -5.0107542697113316e-01  4.3006929535159874e-02  5.7472749407836243e-01  9.4939614832465091e-01  1.0657315190381225e+00  9.0442483694222942e-01  5.0038586990268419e-01  -4.1466863192838890e-02  -4.9499985717789088e-02  -4.9884140704045887e-01  -8.0955777868993772e-01  -9.0435048042279731e-01  -7.6084487207457929e-01  -4.1084061602438054e-01  5.0620708217325880e-02  4.9817809773675492e-01  8.1116333815579544e-01  9.0354477015325430e-01  7.5904295605488004e-01  4.1323421426092111e-01  -4.9499985717789088e-02  -4.2138950115611272e-02  -2.8813874628531694e-01  -4.5439844592089929e-01  -4.9820580301764167e-01  -4.1145655555409011e-01  -2.1116337170504640e-01  4.3540536256413978e-02  2.9046616384325818e-01  4.5335104348546162e-01  5.0041191202497726e-01  4.1112748067062949e-01  2.1305433943195709e-01  -4.2138950115611272e-02  -2.6259969583967990e-02  6.1772195515887561e-04  2.3811342030040122e-02  4.2007076489598297e-02  4.9301273059780056e-02  4.2814185550717671e-02  2.5274200158442204e-02  -1.0524595553377254e-03  -2.4342422419519519e-02  -4.3342380666581914e-02  -4.9505577555736598e-02  -4.3131661171826055e-02  -2.6259969583967990e-02  6.2145319007950552e-04  2.8628306450466595e-01  4.9567554851802181e-01  5.7548279891132459e-01  5.0013819817784955e-01  2.8887349659325018e-01  9.0106194350104605e-04  -2.8698023090295882e-01  -4.9844281458254347e-01  -5.7242805754529524e-01  -4.9715479534111395e-01  -2.9013674073122353e-01  6.2145319007950552e-04  2.4022278491660561e-02  4.9427943128439528e-01  8.3565120088419043e-01  9.4671889889759941e-01  8.0842765404112682e-01  4.5129796133195305e-01  -2.4390385806985222e-02  -4.9829421784543254e-01  -8.3469198795304234e-01  -9.4755824384886667e-01  -8.0857165280254206e-01  -4.5336673080210926e-01  2.4022278491660561e-02  4.3511747928255351e-02  5.7354296579316344e-01  9.4815067267336428e-01  1.0685579861909382e+00  9.0346610558016460e-01  4.9957389251549489e-01  -4.4141424397067960e-02  -5.7531028369581494e-01  -9.4712379370443411e-01  -1.0672834540873666e+00  -9.0323535128780208e-01  -5.0140849946829646e-01  4.3511747928255351e-02  4.9232359942645305e-02  4.9854521202512697e-01  8.0996628750367916e-01  9.0368188036091557e-01  7.6384803915381849e-01  4.1108977742231451e-01  -5.0236297881502578e-02  -4.9655398134235618e-01  -8.0882571418631077e-01  -9.0398764280740673e-01  -7.6080507449588841e-01  -4.1201828484486791e-01  4.9232359942645305e-02  4.5404248522834631e-02  2.8732171179496657e-01  4.5497976387790362e-01  5.0132730298917061e-01  4.0976666258996630e-01  2.1368780358674186e-01  -3.9961723490404139e-02  -2.8755543099496900e-01  -4.5426715559711173e-01  -4.9859047452470329e-01  -4.1130600436621650e-01  -2.1470875336622697e-01  4.5404248522834631e-02  2.3164814629327204e-02  1.2968656893791541e-03  -2.3173800958723144e-02  -4.3215628064868866e-02  -4.8663071047400905e-02  -4.3988067747993756e-02  -2.4859239559846671e-02  1.1801318626143073e-03  2.5415964949671004e-02  3.9782542267605484e-02  4.8041309627310305e-02  3.9314079125347665e-02  2.3164814629327204e-02  1.7272625872415289e-03  -2.3263305168207130e-02  -4.1581007495898825e-02  -5.0879618959370682e-02  -4.2466851953368766e-02  -2.4079400582178594e-02  -1.8161915993957441e-04  2.2265317591154982e-02  4.1218862047974737e-02  5.1031008942476329e-02  4.0474418223441291e-02  2.5705709676574772e-02  1.7272625872415289e-03  -2.4081225271110254e-02  -4.3313642258068240e-02  -5.1962369335768394e-02  -4.4283857274973130e-02  -2.5259606099812853e-02  -6.5314108041533995e-04  2.4352251909656942e-02  4.4204615820494224e-02  5.0637244415614006e-02  4.0785147526415329e-02  2.4215933748651511e-02  2.1031101022667125e-03  -2.4081225271110254e-02  -4.2980253051600879e-02  -4.9615423731215628e-02  -4.3067149434655012e-02  -2.6038240560731250e-02  -4.5784948083410021e-04  2.2551712313776888e-02  4.3537124046211420e-02  4.6892676972108138e-02  4.4337859341552911e-02  2.6836768707397238e-02  -5.7852486662394987e-04  -2.2514387328135228e-02  -4.2980253051600879e-02  -4.9879151819715209e-02  -4.2497850971797854e-02  -2.6032271598966632e-02  -1.3071123252999287e-03  2.5719698032561984e-02  4.4251140691205053e-02  4.8386362252426769e-02  4.2174624118049411e-02  2.6206413387658802e-02  3.6594000920169245e-04  -2.4846671969559746e-02  -4.0882541217859857e-02  -4.9879151819715209e-02  -4.1470328577905398e-02  -2.2595102209133799e-02  -1.0858392897020184e-03  2.5384410550522526e-02  4.6792146915673453e-02  4.9923806783536070e-02  4.3700095087093369e-02  2.4392896959942012e-02  -2.7599730368041344e-04  -2.3923349086926348e-02  -4.3898507345845897e-02  -5.0057338886544532e-02  -4.1470328577905398e-02  -2.6662789655558634e-02  -6.8562563691218264e-04  2.4020124754651560e-02  4.2386878440100584e-02  5.0566134160458194e-02  4.2965208051028950e-02  2.4738117239729268e-02  1.9449398618914208e-03  -2.4517689462682943e-02  -4.2977879559524368e-02  -5.1823288435950188e-02  -4.2989808456487401e-02  -2.6662789655558634e-02  4.7166058987473369e-04  2.6318107147347874e-02  4.1889405731443757e-02  4.9308937205299719e-02  4.2828024459730343e-02  2.4041746549811501e-02  1.4664647771850546e-03  -2.3072480965240057e-02  -4.2094273911743904e-02  -4.9659577917869561e-02  -4.1047153023256247e-02  -2.7257815143071771e-02  4.7166058987473369e-04  2.3283438788925671e-02  4.2363735522220371e-02  4.8508887837322330e-02  4.4013846390494119e-02  2.4227108805922441e-02  7.3677725775960802e-04  -2.2828270291625964e-02  -4.2528319681095529e-02  -5.0315176802098453e-02  -4.0436954179689219e-02  -2.5103522013409388e-02  1.0496846678888930e-04  2.3283438788925671e-02  4.0960230817436487e-02  4.9386016530471526e-02  4.4372262479660154e-02  2.4267612155835810e-02  -2.4002127384436969e-03  -2.4266577993463826e-02  -4.3690183845489998e-02  -5.1142479634006789e-02  -4.2865730988018144e-02  -2.5763661809774747e-02  9.8299773642997212e-04  2.4343452853260780e-02  4.0960230817436487e-02  4.7410006129104482e-02  4.2891080731487556e-02  2.5552838403777693e-02  -5.0170579202786882e-04  -2.5548016361806002e-02  -4.4700533857303694e-02  -4.8931853105302861e-02  -4.2565089434437937e-02  -2.4520834548219392e-02  2.1773028538697272e-04  2.7509364954891768e-02  4.2957103704844207e-02  4.7410006129104482e-02  4.3451880008989321e-02  2.6222443006943992e-02  8.8840077271009916e-04  -2.4626858889337581e-02  -4.4083092594296089e-02  -5.0275071920787624e-02  -4.5108431252660883e-02  -2.2557733969320478e-02  -3.4147844925013794e-04  2.5374158600722275e-02  4.2883271628750309e-02  4.9228091725669033e-02  4.3451880008989321e-02  2.4654061769848148e-02  -8.2293499589824104e-04  -2.3696485721233566e-02  -4.1823641998963643e-02  -4.9689042609478110e-02  -4.3073051447741734e-02  -2.4282841529958115e-02  3.0755711381634174e-04  2.5381524054092469e-02  3.9671840995508141e-02  5.0059865734764404e-02  4.1959226876992634e-02  2.4654061769848148e-02  1.7272625872415289e-03  -2.3263305168207130e-02  -4.1581007495898825e-02  -5.0879618959370682e-02  -4.2466851953368766e-02  -2.4079400582178594e-02  -1.8161915993957441e-04  2.2265317591154982e-02  4.1218862047974737e-02  5.1031008942476329e-02  4.0474418223441291e-02  2.5705709676574772e-02  1.7272625872415289e-03  -2.5128771895608044e-02  -4.2192994867171409e-02  -5.1055538771039063e-02  -4.3457777082510349e-02  -2.5762695587388161e-02  -2.9227794813397711e-04  2.2672645494541514e-02  4.3969463059025445e-02  4.9652548577247789e-02  4.4438321628393666e-02  2.3466399612732752e-02  2.3022940100181862e-03  -2.5128771895608044e-02  -4.1915818042925698e-02  2.1287093593294976e-01  4.1223094801458954e-01  5.0003675320463259e-01  4.5458496480527538e-01  2.8828146003051369e-01  4.5236228006510414e-02  -2.1442838305744755e-01  -4.1356682633716513e-01  -5.0199340043459906e-01  -4.5368817728371857e-01  -2.8784341393148916e-01  -4.1915818042925698e-02  -4.8210351931773782e-02  4.1149044391705347e-01  7.6183284049381117e-01  9.0441531868885294e-01  8.1034550148990780e-01  4.9878151446012370e-01  4.8059861516981425e-02  -4.1308225219522915e-01  -7.6071567372568660e-01  -9.0389609479061706e-01  -8.0831592049241163e-01  -4.9790189128017837e-01  -4.8210351931773782e-02  -4.2054860072778699e-02  4.9848947740648697e-01  9.0308802826458368e-01  1.0695354641912282e+00  9.4848058779041489e-01  5.7260768914534710e-01  4.0300589319414472e-02  -5.0167874970684467e-01  -9.0216816920145071e-01  -1.0670114576474665e+00  -9.4668195696920054e-01  -5.7299285928932953e-01  -4.2054860072778699e-02  -2.1706155829684569e-02  4.5238258303584677e-01  8.1060517736935966e-01  9.4949989014209057e-01  8.3306780621670873e-01  4.9461583713371798e-01  2.4178843390713946e-02  -4.5475570934851262e-01  -8.1091095438122673e-01  -9.4907436069937967e-01  -8.3415873085695780e-01  -4.9697048342649580e-01  -2.1706155829684569e-02  9.4733443887148598e-05  2.8822323801037669e-01  4.9741843307771966e-01  5.7276496752410822e-01  4.9603941634134868e-01  2.8662811585760511e-01  2.5335905263315166e-03  -2.9016677925979240e-01  -4.9987843198589299e-01  -5.7461973080976381e-01  -4.9675207336484001e-01  -2.8860476143056607e-01  9.4733443887148598e-05  2.5034216391647490e-02  4.3801558264181140e-02  4.8173239234156180e-02  4.1958937504820493e-02  2.5075558705829212e-02  1.1069303760105989e-03  -2.3531287383271558e-02  -4.0904871433538083e-02  -4.7678470280365391e-02  -3.7952232569438533e-02  -2.2468127620969659e-02  -2.1824829888939155e-03  2.5034216391647490e-02  4.4576523289715737e-02  -2.1358288949209678e-01  -4.1410660402029609e-01  -4.9813187388048086e-01  -4.5504956703890093e-01  -2.8886429186180929e-01  -4.1949552176604912e-02  2.1330754570011137e-01  4.1488453940860487e-01  5.0011059827575777e-01  4.5412091788720482e-01  2.8651709681697285e-01  4.4576523289715737e-02  4.8021136597568771e-02  -4.1178586839354686e-01  -7.6039869436596152e-01  -9.0340673607761901e-01  -8.0992473234470308e-01  -4.9758261526406228e-01  -5.1115232874407425e-02  4.1644121042187193e-01  7.6086962987534945e-01  9.0679179921703490e-01  8.0952854008328401e-01  4.9921801714538855e-01  4.8021136597568771e-02  3.9868167203766319e-02  -4.9928137025087116e-01  -9.0610737163765409e-01  -1.0674037219953938e+00  -9.4827504322029232e-01  -5.7507974168558063e-01  -4.2238758380683666e-02  5.0047979702960399e-01  9.0438643225512805e-01  1.0694609766917100e+00  9.5209873846841309e-01  5.7442710629351701e-01  3.9868167203766319e-02  2.1559307480148684e-02  -4.5536273635802904e-01  -8.0874622658517936e-01  -9.4750394622648493e-01  -8.3585588344030437e-01  -4.9834318420914742e-01  -2.4796857676732689e-