<?xml version="1.0"?>
<VTKFile type="UnstructuredGrid"  version="0.1"  >
<UnstructuredGrid>
<Piece  NumberOfPoints="2197" NumberOfCells="10368">
<Points>
<DataArray  type="Float64"  NumberOfComponents="3"  format="ascii">-3.141592653589793 -3.141592653589793 -3.141592653589793  -2.617993877991494 -3.141592653589793 -3.141592653589793  -2.094395102393196 -3.141592653589793 -3.141592653589793  -1.570796326794897 -3.141592653589793 -3.141592653589793  -1.047197551196598 -3.141592653589793 -3.141592653589793  -0.5235987755982987 -3.141592653589793 -3.141592653589793  0 -3.141592653589793 -3.141592653589793  0.5235987755982987 -3.141592653589793 -3.141592653589793  1.047197551196597 -3.141592653589793 -3.141592653589793  1.570796326794897 -3.141592653589793 -3.141592653589793  2.094395102393196 -3.141592653589793 -3.141592653589793  2.617993877991494 -3.141592653589793 -3.141592653589793  3.141592653589793 -3.141592653589793 -3.141592653589793  -3.141592653589793 -2.617993877991494 -3.141592653589793  -2.617993877991494 -2.617993877991494 -3.141592653589793  -2.094395102393196 -2.617993877991494 -3.141592653589793  -1.570796326794897 -2.617993877991494 -3.141592653589793  -1.047197551196598 -2.617993877991494 -3.141592653589793  -0.5235987755982987 -2.617993877991494 -3.141592653589793  0 -2.617993877991494 -3.141592653589793  0.5235987755982987 -2.617993877991494 -3.141592653589793  1.047197551196597 -2.617993877991494 -3.141592653589793  1.570796326794897 -2.617993877991494 -3.141592653589793  2.094395102393196 -2.617993877991494 -3.141592653589793  2.617993877991494 -2.617993877991494 -3.141592653589793  3.141592653589793 -2.617993877991494 -3.141592653589793  -3.141592653589793 -2.094395102393196 -3.141592653589793  -2.617993877991494 -2.094395102393196 -3.141592653589793  -2.094395102393196 -2.094395102393196 -3.141592653589793  -1.570796326794897 -2.094395102393196 -3.141592653589793  -1.047197551196598 -2.094395102393196 -3.141592653589793  -0.5235987755982987 -2.094395102393196 -3.141592653589793  0 -2.094395102393196 -3.141592653589793  0.5235987755982987 -2.094395102393196 -3.141592653589793  1.047197551196597 -2.094395102393196 -3.141592653589793  1.570796326794897 -2.094395102393196 -3.141592653589793  2.094395102393196 -2.094395102393196 -3.141592653589793  2.617993877991494 -2.094395102393196 -3.141592653589793  3.141592653589793 -2.094395102393196 -3.141592653589793  -3.141592653589793 -1.570796326794897 -3.141592653589793  -2.617993877991494 -1.570796326794897 -3.141592653589793  -2.094395102393196 -1.570796326794897 -3.141592653589793  -1.570796326794897 -1.570796326794897 -3.141592653589793  -1.047197551196598 -1.570796326794897 -3.141592653589793  -0.5235987755982987 -1.570796326794897 -3.141592653589793  0 -1.570796326794897 -3.141592653589793  0.5235987755982987 -1.570796326794897 -3.141592653589793  1.047197551196597 -1.570796326794897 -3.141592653589793  1.570796326794897 -1.570796326794897 -3.141592653589793  2.094395102393196 -1.570796326794897 -3.141592653589793  2.617993877991494 -1.570796326794897 -3.141592653589793  3.141592653589793 -1.570796326794897 -3.141592653589793  -3.141592653589793 -1.047197551196598 -3.141592653589793  -2.617993877991494 -1.047197551196598 -3.141592653589793  -2.094395102393196 -1.047197551196598 -3.141592653589793  -1.570796326794897 -1.047197551196598 -3.141592653589793  -1.047197551196598 -1.047197551196598 -3.141592653589793  -0.5235987755982987 -1.047197551196598 -3.141592653589793  0 -1.047197551196598 -3.141592653589793  0.5235987755982987 -1.047197551196598 -3.141592653589793  1.047197551196597 -1.047197551196598 -3.141592653589793  1.570796326794897 -1.047197551196598 -3.141592653589793  2.094395102393196 -1.047197551196598 -3.141592653589793  2.617993877991494 -1.047197551196598 -3.141592653589793  3.141592653589793 -1.047197551196598 -3.141592653589793  -3.141592653589793 -0.5235987755982987 -3.141592653589793  -2.617993877991494 -0.5235987755982987 -3.141592653589793  -2.094395102393196 -0.5235987755982987 -3.141592653589793  -1.570796326794897 -0.5235987755982987 -3.141592653589793  -1.047197551196598 -0.5235987755982987 -3.141592653589793  -0.5235987755982987 -0.5235987755982987 -3.141592653589793  0 -0.5235987755982987 -3.141592653589793  0.5235987755982987 -0.5235987755982987 -3.141592653589793  1.047197551196597 -0.5235987755982987 -3.141592653589793  1.570796326794897 -0.5235987755982987 -3.141592653589793  2.094395102393196 -0.5235987755982987 -3.141592653589793  2.617993877991494 -0.5235987755982987 -3.141592653589793  3.141592653589793 -0.5235987755982987 -3.141592653589793  -3.141592653589793 0 -3.141592653589793  -2.617993877991494 0 -3.141592653589793  -2.094395102393196 0 -3.141592653589793  -1.570796326794897 0 -3.141592653589793  -1.047197551196598 0 -3.141592653589793  -0.5235987755982987 0 -3.141592653589793  0 0 -3.141592653589793  0.5235987755982987 0 -3.141592653589793  1.047197551196597 0 -3.141592653589793  1.570796326794897 0 -3.141592653589793  2.094395102393196 0 -3.141592653589793  2.617993877991494 0 -3.141592653589793  3.141592653589793 0 -3.141592653589793  -3.141592653589793 0.5235987755982987 -3.141592653589793  -2.617993877991494 0.5235987755982987 -3.141592653589793  -2.094395102393196 0.5235987755982987 -3.141592653589793  -1.570796326794897 0.5235987755982987 -3.141592653589793  -1.047197551196598 0.5235987755982987 -3.141592653589793  -0.5235987755982987 0.5235987755982987 -3.141592653589793  0 0.5235987755982987 -3.141592653589793  0.5235987755982987 0.5235987755982987 -3.141592653589793  1.047197551196597 0.5235987755982987 -3.141592653589793  1.570796326794897 0.5235987755982987 -3.141592653589793  2.094395102393196 0.5235987755982987 -3.141592653589793  2.617993877991494 0.5235987755982987 -3.141592653589793  3.141592653589793 0.5235987755982987 -3.141592653589793  -3.141592653589793 1.047197551196597 -3.141592653589793  -2.617993877991494 1.047197551196597 -3.141592653589793  -2.094395102393196 1.047197551196597 -3.141592653589793  -1.570796326794897 1.047197551196597 -3.141592653589793  -1.047197551196598 1.047197551196597 -3.141592653589793  -0.5235987755982987 1.047197551196597 -3.141592653589793  0 1.047197551196597 -3.141592653589793  0.5235987755982987 1.047197551196597 -3.141592653589793  1.047197551196597 1.047197551196597 -3.141592653589793  1.570796326794897 1.047197551196597 -3.141592653589793  2.094395102393196 1.047197551196597 -3.141592653589793  2.617993877991494 1.047197551196597 -3.141592653589793  3.141592653589793 1.047197551196597 -3.141592653589793  -3.141592653589793 1.570796326794897 -3.141592653589793  -2.617993877991494 1.570796326794897 -3.141592653589793  -2.094395102393196 1.570796326794897 -3.141592653589793  -1.570796326794897 1.570796326794897 -3.141592653589793  -1.047197551196598 1.570796326794897 -3.141592653589793  -0.5235987755982987 1.570796326794897 -3.141592653589793  0 1.570796326794897 -3.141592653589793  0.5235987755982987 1.570796326794897 -3.141592653589793  1.047197551196597 1.570796326794897 -3.141592653589793  1.570796326794897 1.570796326794897 -3.141592653589793  2.094395102393196 1.570796326794897 -3.141592653589793  2.617993877991494 1.570796326794897 -3.141592653589793  3.141592653589793 1.570796326794897 -3.141592653589793  -3.141592653589793 2.094395102393196 -3.141592653589793  -2.617993877991494 2.094395102393196 -3.141592653589793  -2.094395102393196 2.094395102393196 -3.141592653589793  -1.570796326794897 2.094395102393196 -3.141592653589793  -1.047197551196598 2.094395102393196 -3.141592653589793  -0.5235987755982987 2.094395102393196 -3.141592653589793  0 2.094395102393196 -3.141592653589793  0.5235987755982987 2.094395102393196 -3.141592653589793  1.047197551196597 2.094395102393196 -3.141592653589793  1.570796326794897 2.094395102393196 -3.141592653589793  2.094395102393196 2.094395102393196 -3.141592653589793  2.617993877991494 2.094395102393196 -3.141592653589793  3.141592653589793 2.094395102393196 -3.141592653589793  -3.141592653589793 2.617993877991494 -3.141592653589793  -2.617993877991494 2.617993877991494 -3.141592653589793  -2.094395102393196 2.617993877991494 -3.141592653589793  -1.570796326794897 2.617993877991494 -3.141592653589793  -1.047197551196598 2.617993877991494 -3.141592653589793  -0.5235987755982987 2.617993877991494 -3.141592653589793  0 2.617993877991494 -3.141592653589793  0.5235987755982987 2.617993877991494 -3.141592653589793  1.047197551196597 2.617993877991494 -3.141592653589793  1.570796326794897 2.617993877991494 -3.141592653589793  2.094395102393196 2.617993877991494 -3.141592653589793  2.617993877991494 2.617993877991494 -3.141592653589793  3.141592653589793 2.617993877991494 -3.141592653589793  -3.141592653589793 3.141592653589793 -3.141592653589793  -2.617993877991494 3.141592653589793 -3.141592653589793  -2.094395102393196 3.141592653589793 -3.141592653589793  -1.570796326794897 3.141592653589793 -3.141592653589793  -1.047197551196598 3.141592653589793 -3.141592653589793  -0.5235987755982987 3.141592653589793 -3.141592653589793  0 3.141592653589793 -3.141592653589793  0.5235987755982987 3.141592653589793 -3.141592653589793  1.047197551196597 3.141592653589793 -3.141592653589793  1.570796326794897 3.141592653589793 -3.141592653589793  2.094395102393196 3.141592653589793 -3.141592653589793  2.617993877991494 3.141592653589793 -3.141592653589793  3.141592653589793 3.141592653589793 -3.141592653589793  -3.141592653589793 -3.141592653589793 -2.617993877991494  -2.617993877991494 -3.141592653589793 -2.617993877991494  -2.094395102393196 -3.141592653589793 -2.617993877991494  -1.570796326794897 -3.141592653589793 -2.617993877991494  -1.047197551196598 -3.141592653589793 -2.617993877991494  -0.5235987755982987 -3.141592653589793 -2.617993877991494  0 -3.141592653589793 -2.617993877991494  0.5235987755982987 -3.141592653589793 -2.617993877991494  1.047197551196597 -3.141592653589793 -2.617993877991494  1.570796326794897 
[...]
<PointData  Scalars="f_205640"> 
<DataArray  type="Float64"  Name="f_205640"  format="ascii">6.7904063172544021e-02  6.2543787964917774e-02  -8.5494502020943084e-03  -4.4841971503820641e-03  3.1201739635003116e-03  -4.0964486924355697e-02  -7.3573814709713109e-02  -3.6022503578186031e-02  -1.2841644423211177e-02  -5.2772334053634252e-03  -1.9505249822944010e-02  5.3871610851728202e-02  6.7904063172544021e-02  4.9407395696423898e-02  -6.5402519912053658e-01  -1.0026369901475725e+00  -1.0952422714621761e+00  -1.0419407125925759e+00  -7.5748997005447982e-01  -5.7245446358625156e-02  6.4570729722071640e-01  1.0933264970677228e+00  1.0837610213845708e+00  9.6754095332338153e-01  7.4522092958730146e-01  4.9407395696423898e-02  4.9574665459176312e-03  -1.0988137025309892e+00  -1.4414091939447351e+00  -1.4904053410621434e+00  -1.6129721980210787e+00  -9.6424391232587225e-01  1.7124942400598381e-02  9.9121874786777797e-01  1.4488261631568695e+00  1.5205696951966798e+00  1.6204849799953351e+00  1.0379249371904447e+00  4.9574665459176312e-03  -1.8880936970982133e-03  -1.0720973659995494e+00  -1.5328493601304058e+00  -1.8731911227585054e+00  -1.5199835307555147e+00  -1.0793806293447483e+00  -1.6495995995412534e-04  1.1008940977830024e+00  1.4884200364065703e+00  1.8599034556551657e+00  1.4841852625821248e+00  1.0992025301741635e+00  -1.8880936970982133e-03  1.6476259699517989e-02  -9.6598898909869046e-01  -1.6214184646702776e+00  -1.4873116414431671e+00  -1.4443251749409256e+00  -1.0989493992999912e+00  5.3433623942863726e-03  1.0470208992842562e+00  1.6222326988933875e+00  1.5107749425219266e+00  1.4424968966613034e+00  9.8931327887980114e-01  1.6476259699517989e-02  -5.4092619338465674e-02  -7.6112394001280781e-01  -1.0354160805504580e+00  -1.1011124690355290e+00  -9.8872032880444050e-01  -6.4394059962599148e-01  4.7199888522722229e-02  7.5460297127520815e-01  9.6595785651131438e-01  1.0763357206456166e+00  1.0910768416668724e+00  6.4647167352630508e-01  -5.4092619338465674e-02  -5.5536000737470850e-02  -4.2172615312660477e-02  -5.4959226488149856e-03  2.4554905687375833e-03  -1.0114607311209714e-02  5.5000942271167697e-02  5.9299152410295902e-02  5.5469086636524376e-02  -1.3924581303726830e-02  -2.3139967646982318e-03  -6.3346028987987168e-03  -5.0709735482914853e-02  -5.5536000737470850e-02  -6.2593397616089411e-02  6.4694800254940932e-01  1.0926932100879876e+00  1.0835135859747551e+00  9.7214735719756795e-01  7.5465631085084495e-01  3.9865613187547763e-02  -6.4474801087262745e-01  -9.9568788222851945e-01  -1.0947713797013086e+00  -1.0380832203153878e+00  -7.4798534649654569e-01  -6.2593397616089411e-02  1.3788050790695687e-02  9.9885118539938811e-01  1.4456297710895754e+00  1.5185373984423791e+00  1.6208786205502541e+00  1.0378913527725433e+00  4.5312673799241011e-03  -1.0996782843324853e+00  -1.4439009569474677e+00  -1.4925956529334132e+00  -1.6153647425084656e+00  -9.6274665371744672e-01  1.3788050790695687e-02  -4.6346455834945822e-03  1.1060134242684947e+00  1.4945704641184590e+00  1.8715116832662884e+00  1.4896859833344898e+00  1.0940895120486673e+00  -2.7762001845389075e-03  -1.0811864433816016e+00  -1.5224026207502299e+00  -1.8676360112191079e+00  -1.5178764841384038e+00  -1.0831953417590843e+00  -4.6346455834945822e-03  8.8168391936092015e-03  1.0408423735310284e+00  1.6215239594776134e+00  1.5127527805156118e+00  1.4479165659189022e+00  9.8653891890323087e-01  1.1951846102708098e-02  -9.7154653338784613e-01  -1.6005533500772642e+00  -1.4918823934761554e+00  -1.4418636147356132e+00  -1.0886818609176423e+00  8.8168391936092015e-03  3.6637567779061020e-02  7.5851454622589054e-01  9.6577444954387848e-01  1.0801190174259430e+00  1.0962875374176015e+00  6.5768916981442527e-01  -6.5810283371960043e-02  -7.4904887659383823e-01  -1.0377016746725134e+00  -1.0974398665123031e+00  -9.9234747942164192e-01  -6.4387202184501269e-01  3.6637567779061020e-02  6.7904063172544021e-02  6.2543787964917774e-02  -8.5494502020943084e-03  -4.4841971503820641e-03  3.1201739635003116e-03  -4.0964486924355697e-02  -7.3573814709713109e-02  -3.6022503578186031e-02  -1.2841644423211177e-02  -5.2772334053634252e-03  -1.9505249822944010e-02  5.3871610851728202e-02  6.7904063172544021e-02  5.9284229449526778e-02  1.8491241456808187e-02  -3.1074374111430391e-02  -1.2883235335946753e-02  -4.4304717973745592e-02  -6.2133315416699156e-02  -4.1105404202380853e-02  -1.5113617913896456e-02  2.2438487380663234e-02  7.3352491998401048e-03  4.2920943326639566e-02  7.8403512930027050e-02  5.9284229449526778e-02  2.3876913234542638e-03  -5.8416352529043780e-01  -8.5576880075012118e-01  -9.5530686604299486e-01  -9.5854615349742023e-01  -6.0237895665630692e-01  -3.0662971159969309e-02  5.8296350425739574e-01  8.8349662056158540e-01  9.4898028812360180e-01  8.9028831363306482e-01  6.1574157917814532e-01  2.3876913234542638e-03  -2.5074394970814470e-02  -8.8563043089869786e-01  -1.2665290141375563e+00  -1.4590321618618791e+00  -1.4100706323557632e+00  -7.9693930633278953e-01  3.3782243641912263e-02  8.5300300031256682e-01  1.2601865468130724e+00  1.4567052601914112e+00  1.4033442502797382e+00  8.6024678227840579e-01  -2.5074394970814470e-02  -7.9816571105723252e-03  -9.4952953584229249e-01  -1.4565745186982999e+00  -1.6628828738261383e+00  -1.4206517410514519e+00  -9.3313629909917462e-01  1.9591442418026420e-02  9.4557846444712101e-01  1.4598768638718675e+00  1.6628893333818613e+00  1.3709941380494681e+00  9.5642636653575464e-01  -7.9816571105723252e-03  -4.2021227223710989e-02  -9.0282638393026304e-01  -1.4018096308347989e+00  -1.3671951456110696e+00  -1.3412062292660241e+00  -9.4758642907061574e-01  5.0384263358986145e-02  9.5274597376702830e-01  1.4001668755657266e+00  1.4079282540287734e+00  1.3299868152694598e+00  8.5089858298206189e-01  -4.2021227223710989e-02  -7.5437125111913736e-02  -6.2017007855598993e-01  -8.5545552318774676e-01  -9.5302863576835561e-01  -8.4934605498914995e-01  -4.8290206432080168e-01  6.2799586436175947e-02  6.0591470507744616e-01  8.0347257592674848e-01  9.3727482599495704e-01  9.4914499939108798e-01  4.8513401818521673e-01  -7.5437125111913736e-02  -5.4446817642191232e-02  -7.2747727716833393e-03  1.9367677277393847e-02  8.5760304418335317e-03  4.3235973040797272e-02  7.3676969575557361e-02  4.5564406097473732e-02  2.5653564279125844e-02  -3.0044364002118899e-02  -1.8732656530310948e-02  -4.9445471447927214e-02  -6.0319933002178430e-02  -5.4446817642191232e-02  -2.1787892695502149e-02  5.7533081490354210e-01  8.8076803850096608e-01  9.5111016088245570e-01  9.0155106773965976e-01  6.2281079928203609e-01  1.3976566777308993e-02  -5.8527271542528103e-01  -8.4921872346008542e-01  -9.4603412546392640e-01  -9.5377579969602688e-01  -6.0843957681895666e-01  -2.1787892695502149e-02  3.2997851272573278e-02  8.5738308765972537e-01  1.2599789018578127e+00  1.4601238752150201e+00  1.4028886239734091e+00  8.5721916862008285e-01  -2.9824715134002533e-02  -8.7991029661380504e-01  -1.2640080756021346e+00  -1.4599924802956676e+00  -1.3944050102606038e+00  -7.9796326950850271e-01  3.2997851272573278e-02  1.5174874186111766e-02  9.5386777108961107e-01  1.4586133537797328e+00  1.6709454898744411e+00  1.3621748019450055e+00  9.5918584374544846e-01  -1.5052818017143870e-02  -9.4947955970597386e-01  -1.4525144427036532e+00  -1.6653879872828674e+00  -1.4196063860907682e+00  -9.3277607108931970e-01  1.5174874186111766e-02  5.5845384458419779e-02  9.5381949967737267e-01  1.4042932505595269e+00  1.4126086992793820e+00  1.3387384719020843e+00  8.5264973870654959e-01  -4.8157608224434760e-02  -8.9628040489537852e-01  -1.4011993883377991e+00  -1.3756670258087655e+00  -1.3396535296914409e+00  -9.5577591636693515e-01  5.5845384458419779e-02  6.8495632876755155e-02  6.1769923140828575e-01  7.9367276316182411e-01  9.3405616211936138e-01  9.5029398087562211e-01  4.8885503447607631e-01  -6.6617270150304816e-02  -6.2726117576053630e-01  -8.4542295950803636e-01  -9.4423080689640071e-01  -8.5196655344839844e-01  -4.9000451328650524e-01  6.8495632876755155e-02  5.9284229449526778e-02  1.8491241456808187e-02  -3.1074374111430391e-02  -1.2883235335946753e-02  -4.4304717973745592e-02  -6.2133315416699156e-02  -4.1105404202380853e-02  -1.5113617913896456e-02  2.2438487380663234e-02  7.3352491998401048e-03  4.2920943326639566e-02  7.8403512930027050e-02  5.9284229449526778e-02  1.5983409543577701e-02  1.3968113458062882e-02  -1.9395803201853946e-02  -3.4382863096904540e-02  -4.2684141314909524e-02  -5.4735860283134131e-02  -2.1829067503011643e-02  3.5575237072085495e-03  2.9888149185327360e-02  2.6875468879243053e-02  4.4787931783846012e-02  2.0545252281736995e-02  1.5983409543577701e-02  1.1959858392865435e-02  -3.2395633831732518e-01  -5.1893601027563407e-01  -6.0800194828074283e-01  -5.5003185365624052e-01  -3.1593203131244635e-01  -5.9915392524229026e-03  3.1360381363014317e-01  5.2179344462933019e-01  6.2279999426169885e-01  5.5004402194448743e-01  3.1919056445413968e-01  1.1959858392865435e-02  -2.0674328631694865e-02  -5.2701235267428248e-01  -8.2798510497914524e-01  -9.6991284352680329e-01  -8.3176222602828698e-01  -4.4206069319688729e-01  1.2780025880697078e-02  5.2453567835005110e-01  8.2830759918564179e-01  9.6578628373286313e-01  8.2302414732772278e-01  4.6424792485930932e-01  -2.0674328631694865e-02  -3.3335437005285268e-02  -6.1587918697044475e-01  -9.6889454941384390e-01  -1.0476529743205425e+00  -9.0038167021429716e-01  -5.3076482485713106e-01  3.4717849724445415e-02  6.0839940124019742e-01  9.6999927654387363e-01  1.0429505888772317e+00  9.0783088000171008e-01  5.3721397311678443e-01  -3.3335437005285268e-02  -5.3200333537210640e-02  -5.4712800745641932e-01  -8.2186914012322154e-01  -9.0700294042405649e-01  -7.9740285837371649e-01  -4.6476614087873708e-01  4.9477061470405440e-02  5.5783435138962623e-01  8.3551221908600881e-01  8.9659697627630708e-01  7.8884164259175660e-01  4.5369133825029129e-01  -5.3200333537210640e-02  -3.0116091723726160e-02  -3.1967906976143523e-01  -4.7234799970023511e-01  -5.3161006068276884e-01  -4.4453877643845363e-01  -2.0094031177030525e-01  5.3775076809012848e-02  3.0604110434907666e-01  4.4185436524346822e-01  5.2745329940808927e-01  4.6717117909687333e-01  2.0773777330184420e-01  -3.0116091723726160e-02  -2.7562404134183583e-02  -9.7597766832017811e-04  2.5803191576889564e-02  3.2178812154690241e-02  5.1412968553973100e-02  3.2858980021335790e-02  2.5511153820459591e-02  9.3847636130771003e-03  -2.4283429216617670e-02  -3.5529417422466326e-02  -4.2674842995696675e-02  -5.5397388313934114e-02  -2.7562404134183583e-02  -9.1636374861357884e-03  3.1047343368059171e-01  5.1716437353303035e-01  6.2601005480751304e-01  5.5169110960081325e-01  3.2469524748607936e-01  8.5276748277704137e-03  -3.1792900489936904e-01  -5.1966244747330526e-01  -5.9788799584082486e-01  -5.5453522975117575e-01  -3.0841466965808834e-01  -9.1636374861357884e-03  2.1841667186766698e-02  5.0832504923760879e-01  8.3069318057278241e-01  9.6450184045445486e-01  8.1818092857925873e-01  4.6276199553510200e-01  -2.8444723765638998e-02  -5.2794149515977618e-01  -8.2722603590352595e-01  -9.6293238573917805e-01  -8.2881027360621728e-01  -4.3884755514331064e-01  2.1841667186766698e-02  3.6913063887262114e-02  6.0794302443092607e-01  9.6668373451377532e-01  1.0526828031586597e+00  9.0247209088921043e-01  5.3332642052490942e-01  -4.1513798847923167e-02  -6.2193585837406129e-01  -9.6337887785339349e-01  -1.0480509913283105e+00  -8.9663091242425164e-01  -5.3500024738019958e-01  3.6913063887262114e-02  4.2912531338658619e-02  5.5711421337293476e-01  8.3305469718406033e-01  9.0025845755369405e-01  8.0294948029909963e-01  4.4505645622573081e-01  -5.3490777258622398e-02  -5.4501827737464192e-01  -8.2271078399021336e-01  -9.0410560388026384e-01  -7.9888643513704216e-01  -4.6815428825083916e-01  4.2912531338658619e-02  6.0428617559570366e-02  2.9918092891058007e-01  4.4155573618422089e-01  5.3063772321380442e-01  4.6956185747425438e-01  2.0789198638776199e-01  -2.6150618908428059e-02  -3.1651528010570412e-01  -4.6758670912067374e-01  -5.3450950275805587e-01  -4.4572092750007719e-01  -2.1304719308950096e-01  6.0428617559570366e-02  1.5983409543577701e-02  1.3968113458062882e-02  -1.9395803201853946e-02  -3.4382863096904540e-02  -4.2684141314909524e-02  -5.4735860283134131e-02  -2.1829067503011643e-02  3.5575237072085495e-03  2.9888149185327360e-02  2.6875468879243053e-02  4.4787931783846012e-02  2.0545252281736995e-02  1.5983409543577701e-02  6.1188934122839520e-03  -1.6011780045302064e-02  -2.7117301692127404e-02  -2.7966467079311386e-02  -2.8618307554578934e-02  -1.7662765846867993e-02  5.6511594423079066e-05  6.1087114622467107e-03  2.7439910675219805e-02  4.5028877060961245e-02  2.6936366629754589e-02  1.8749311804777152e-02  6.1188934122839520e-03  -1.4108918442668903e-02  -4.8209029968503736e-02  -5.7887157539762674e-02  -5.1931396336185751e-02  -3.4101651000252177e-02  -2.8623424832861515e-03  2.1142088850395938e-02  5.1237569871587264e-02  7.0861822064300597e-02  4.0233830419860957e-02  1.1878429792402306e-02  8.8633530629656336e-03  -1.4108918442668903e-02  -3.4444449195739850e-02  -6.5938059982021041e-02  -6.6878821382303846e-02  -4.7070255192359099e-02  -5.5535048061883653e-04  2.3816745011646951e-02  3.3052818546114991e-02  3.7947169525148955e-02  6.9493665520302006e-02  4.8132606774044212e-02  -8.5436201400476545e-04  -6.8378359747123165e-03  -3.4444449195739850e-02  -4.0044160539802490e-02  -4.7124374506070640e-02  -4.3387161147321315e-02  -5.9161559342343507e-03  4.5871725560624403e-02  4.9437205954089937e-02  1.9260353900163119e-02  4.3259602569637144e-02  4.7600701653670988e-02  2.8789991348638915e-03  -4.0450142663977895e-02  -4.0541766185030144e-02  -4.0044160539802490e-02  -2.9723758753783785e-02  -5.7445289751299634e-03  -3.8316067192111264e-03  4.1809216353481296e-02  8.1492810745390873e-02  4.9531710635113406e-02  3.2436045918706129e-02  3.3930361096545618e-02  -2.7547562391391439e-03  -3.9748102411067784e-02  -7.0375033548455423e-02  -6.5777626888776697e-02  -2.9723758753783785e-02  -2.1448078762401786e-02  -2.9742031841620883e-03  1.1884217281283610e-02  4.5364461875295893e-02  6.8171180634658074e-02  4.6786433262853783e-02  2.2755796914351846e-02  5.1514473657866310e-03  -3.1810047632541236e-02  -4.5569204054065476e-02  -5.7380883303585838e-02  -4.6890951445690998e-02  -2.1448078762401786e-02  1.4338857336018516e-03  2.0016204780242759e-02  3.2544840911475199e-02  3.8095400253273619e-02  3.4560177724158044e-02  1.3824848960516192e-02  4.9160578484291461e-03  -1.2838300941451296e-02  -2.9839459993456267e-02  -2.0251027739077592e-02  -2.4630908151643181e-02  -3.0568669143079253e-02  1.4338857336018516e-03  1.6692887017571392e-02  4.4184658196058164e-02  6.4494353680184649e-02  4.8082998853123803e-02  1.3358811435477290e-02  2.6422267256485275e-03  -9.6063764074112747e-03  -4.6004023865852166e-02  -5.0242819396282862e-02  -3.5309525575226194e-02  -3.5681609515547663e-02  -2.3112263777887989e-07  1.6692887017571392e-02  2.1402610657362955e-02  5.1075473740985942e-02  6.9012245341481607e-02  3.8424276912929468e-02  -7.8508697976212849e-03  -1.3203184534157756e-02  -3.7726630222832326e-02  -6.9264164825743268e-02  -6.4306820120841934e-02  -4.6687685898473892e-02  3.4337156895281346e-03  3.1517084474853505e-02  2.1402610657362955e-02  1.5243343520881131e-02  4.5652222384428169e-02  4.5455494281560656e-02  -2.4192553883060661e-03  -4.3860758747096322e-02  -5.3675704302748213e-02  -3.7863920660386602e-02  -4.4152454653229992e-02  -3.8799774217032616e-02  -8.0146199623741749e-04  5.5521622464890188e-02  4.3761587051460944e-02  1.5243343520881131e-02  3.2998270996947306e-02  3.8395228611261566e-02  4.3226905264136745e-03  -4.2231256489767721e-02  -6.7896322272760518e-02  -6.7876736628615805e-02  -4.4641896036771302e-02  -6.8150713677067260e-03  -2.1215633049389802e-03  3.9293326353046873e-02  6.3964491163461132e-02  4.7848389059758335e-02  3.2998270996947306e-02  2.2054359341004609e-02  -3.2433218760677600e-03  -2.9181375342985285e-02  -3.9798872185711688e-02  -5.1152302926481007e-02  -4.9002136539213668e-02  -1.2511387532069346e-02  -2.4222919210661916e-04  1.8360298035450244e-02  3.1918276641915530e-02  6.9727787628054969e-02  4.3902434115822064e-02  2.2054359341004609e-02  6.1188934122839520e-03  -1.6011780045302064e-02  -2.7117301692127404e-02  -2.7966467079311386e-02  -2.8618307554578934e-02  -1.7662765846867993e-02  5.6511594423079066e-05  6.1087114622467107e-03  2.7439910675219805e-02  4.5028877060961245e-02  2.6936366629754589e-02  1.8749311804777152e-02  6.1188934122839520e-03  -2.3376971357130294e-02  -5.0945485677386597e-02  -5.0182916265201424e-02  -3.5458706012573664e-02  -3.0683996747281169e-02  1.0494633953404471e-02  1.6654226848686997e-02  3.9813989429779165e-02  5.7443172380025415e-02  3.4361063505465902e-02  2.3312460512817750e-02  5.3691742400164893e-03  -2.3376971357130294e-02  -3.0276235801365063e-02  2.0698682649528094e-01  4.7268337700788277e-01  5.2995193837346510e-01  4.4502512810098094e-01  3.0101559088814439e-01  5.6958457983816477e-02  -2.1339492235579832e-01  -4.5651159130712560e-01  -5.4593546173162666e-01  -4.6835854843797897e-01  -3.1809388531169985e-01  -3.0276235801365063e-02  -4.8522368882405957e-02  4.4176235894050764e-01  8.0389093555923086e-01  9.0117892683406542e-01  8.3105514835461891e-01  5.5753536882998156e-01  4.3669289049219712e-02  -4.7363865884683448e-01  -7.9789853853861281e-01  -9.0422203298923176e-01  -8.1687135345554729e-01  -5.4420649325944781e-01  -4.8522368882405957e-02  -3.4212049243475567e-02  5.3826733240718172e-01  9.0018257080532449e-01  1.0548524938165103e+00  9.6663319977202955e-01  6.0435558118067478e-01  2.1925588660044577e-02  -5.3402827886114002e-01  -8.9393467353931610e-01  -1.0457626227629426e+00  -9.6546769343125038e-01  -6.1246228265380942e-01  -3.4212049243475567e-02  -1.4737333502819987e-02  4.6496404039658040e-01  8.2513769884443255e-01  9.7379129911826390e-01  8.2172921966009194e-01  5.0868759479556125e-01  1.9791700931591400e-02  -4.4288044063872983e-01  -8.3870022708932079e-01  -9.6853958328851464e-01  -8.2702290045951754e-01  -5.2248134741127628e-01  -1.4737333502819987e-02  3.5448289582405770e-03  3.1879474864889878e-01  5.4595231211939244e-01  6.1240139847560837e-01  5.2060149304728509e-01  3.0996668748828571e-01  1.1970140088679250e-03  -3.0596704346327752e-01  -5.6491990985649421e-01  -6.0900789476972872e-01  -5.1113490223055480e-01  -3.2424185561405311e-01  3.5448289582405770e-03  2.1643212681802273e-02  3.8955589099723902e-02  4.6181463129869545e-02  3.0710306052712022e-02  3.1754174186450865e-02  -1.2850562517142696e-03  -1.4854850156682512e-02  -5.2468807089016412e-02  -2.7591234539775845e-02  -1.8677491376779813e-02  -1.1501311888424409e-02  2.4636689647090132e-03  2.1643212681802273e-02  5.5593538290340402e-02  -2.1055157229294277e-01  -4.5220962892723510e-01  -5.3817786904987353e-01  -4.6985284173850894e-01  -3.2029644698874787e-01  -3.6817256394119591e-02  2.2240010645224789e-01  4.7483089853775823e-01  5.3793614845756710e-01  4.4047218494722618e-01  2.9182141914840143e-01  5.5593538290340402e-02  4.0553280512706590e-02  -4.6701252232462648e-01  -7.9736350183987981e-01  -9.0365423628965069e-01  -8.2653550986348867e-01  -5.4738333028767250e-01  -5.3285526000478659e-02  4.5966758425344612e-01  8.0220371868316176e-01  9.0798017060236735e-01  8.2854841291242876e-01  5.5871041561070911e-01  4.0553280512706590e-02  2.4846574277985582e-02  -5.2833089932054578e-01  -9.0930200505819381e-01  -1.0448475430346886e+00  -9.7321607263038978e-01  -6.2431233717023105e-01  -3.2186342687125204e-02  5.4071733254008925e-01  9.0228657142859936e-01  1.0583347702794572e+00  9.7828436409177133e-01  6.0971951638958277e-01  2.4846574277985582e-02  1.0612083311222986e-02  -4.4596841401636794e-01  -8.2673436506977949e-01  -9.6121965447298863e-01  -8.2766917206580337e-01  -5.2970781368364095e-01  -2.56095853282