<?xml version="1.0"?>
<VTKFile type="UnstructuredGrid"  version="0.1"  >
<UnstructuredGrid>
<Piece  NumberOfPoints="2197" NumberOfCells="10368">
<Points>
<DataArray  type="Float64"  NumberOfComponents="3"  format="ascii">-3.141592653589793 -3.141592653589793 -3.141592653589793  -2.617993877991494 -3.141592653589793 -3.141592653589793  -2.094395102393196 -3.141592653589793 -3.141592653589793  -1.570796326794897 -3.141592653589793 -3.141592653589793  -1.047197551196598 -3.141592653589793 -3.141592653589793  -0.5235987755982987 -3.141592653589793 -3.141592653589793  0 -3.141592653589793 -3.141592653589793  0.5235987755982987 -3.141592653589793 -3.141592653589793  1.047197551196597 -3.141592653589793 -3.141592653589793  1.570796326794897 -3.141592653589793 -3.141592653589793  2.094395102393196 -3.141592653589793 -3.141592653589793  2.617993877991494 -3.141592653589793 -3.141592653589793  3.141592653589793 -3.141592653589793 -3.141592653589793  -3.141592653589793 -2.617993877991494 -3.141592653589793  -2.617993877991494 -2.617993877991494 -3.141592653589793  -2.094395102393196 -2.617993877991494 -3.141592653589793  -1.570796326794897 -2.617993877991494 -3.141592653589793  -1.047197551196598 -2.617993877991494 -3.141592653589793  -0.5235987755982987 -2.617993877991494 -3.141592653589793  0 -2.617993877991494 -3.141592653589793  0.5235987755982987 -2.617993877991494 -3.141592653589793  1.047197551196597 -2.617993877991494 -3.141592653589793  1.570796326794897 -2.617993877991494 -3.141592653589793  2.094395102393196 -2.617993877991494 -3.141592653589793  2.617993877991494 -2.617993877991494 -3.141592653589793  3.141592653589793 -2.617993877991494 -3.141592653589793  -3.141592653589793 -2.094395102393196 -3.141592653589793  -2.617993877991494 -2.094395102393196 -3.141592653589793  -2.094395102393196 -2.094395102393196 -3.141592653589793  -1.570796326794897 -2.094395102393196 -3.141592653589793  -1.047197551196598 -2.094395102393196 -3.141592653589793  -0.5235987755982987 -2.094395102393196 -3.141592653589793  0 -2.094395102393196 -3.141592653589793  0.5235987755982987 -2.094395102393196 -3.141592653589793  1.047197551196597 -2.094395102393196 -3.141592653589793  1.570796326794897 -2.094395102393196 -3.141592653589793  2.094395102393196 -2.094395102393196 -3.141592653589793  2.617993877991494 -2.094395102393196 -3.141592653589793  3.141592653589793 -2.094395102393196 -3.141592653589793  -3.141592653589793 -1.570796326794897 -3.141592653589793  -2.617993877991494 -1.570796326794897 -3.141592653589793  -2.094395102393196 -1.570796326794897 -3.141592653589793  -1.570796326794897 -1.570796326794897 -3.141592653589793  -1.047197551196598 -1.570796326794897 -3.141592653589793  -0.5235987755982987 -1.570796326794897 -3.141592653589793  0 -1.570796326794897 -3.141592653589793  0.5235987755982987 -1.570796326794897 -3.141592653589793  1.047197551196597 -1.570796326794897 -3.141592653589793  1.570796326794897 -1.570796326794897 -3.141592653589793  2.094395102393196 -1.570796326794897 -3.141592653589793  2.617993877991494 -1.570796326794897 -3.141592653589793  3.141592653589793 -1.570796326794897 -3.141592653589793  -3.141592653589793 -1.047197551196598 -3.141592653589793  -2.617993877991494 -1.047197551196598 -3.141592653589793  -2.094395102393196 -1.047197551196598 -3.141592653589793  -1.570796326794897 -1.047197551196598 -3.141592653589793  -1.047197551196598 -1.047197551196598 -3.141592653589793  -0.5235987755982987 -1.047197551196598 -3.141592653589793  0 -1.047197551196598 -3.141592653589793  0.5235987755982987 -1.047197551196598 -3.141592653589793  1.047197551196597 -1.047197551196598 -3.141592653589793  1.570796326794897 -1.047197551196598 -3.141592653589793  2.094395102393196 -1.047197551196598 -3.141592653589793  2.617993877991494 -1.047197551196598 -3.141592653589793  3.141592653589793 -1.047197551196598 -3.141592653589793  -3.141592653589793 -0.5235987755982987 -3.141592653589793  -2.617993877991494 -0.5235987755982987 -3.141592653589793  -2.094395102393196 -0.5235987755982987 -3.141592653589793  -1.570796326794897 -0.5235987755982987 -3.141592653589793  -1.047197551196598 -0.5235987755982987 -3.141592653589793  -0.5235987755982987 -0.5235987755982987 -3.141592653589793  0 -0.5235987755982987 -3.141592653589793  0.5235987755982987 -0.5235987755982987 -3.141592653589793  1.047197551196597 -0.5235987755982987 -3.141592653589793  1.570796326794897 -0.5235987755982987 -3.141592653589793  2.094395102393196 -0.5235987755982987 -3.141592653589793  2.617993877991494 -0.5235987755982987 -3.141592653589793  3.141592653589793 -0.5235987755982987 -3.141592653589793  -3.141592653589793 0 -3.141592653589793  -2.617993877991494 0 -3.141592653589793  -2.094395102393196 0 -3.141592653589793  -1.570796326794897 0 -3.141592653589793  -1.047197551196598 0 -3.141592653589793  -0.5235987755982987 0 -3.141592653589793  0 0 -3.141592653589793  0.5235987755982987 0 -3.141592653589793  1.047197551196597 0 -3.141592653589793  1.570796326794897 0 -3.141592653589793  2.094395102393196 0 -3.141592653589793  2.617993877991494 0 -3.141592653589793  3.141592653589793 0 -3.141592653589793  -3.141592653589793 0.5235987755982987 -3.141592653589793  -2.617993877991494 0.5235987755982987 -3.141592653589793  -2.094395102393196 0.5235987755982987 -3.141592653589793  -1.570796326794897 0.5235987755982987 -3.141592653589793  -1.047197551196598 0.5235987755982987 -3.141592653589793  -0.5235987755982987 0.5235987755982987 -3.141592653589793  0 0.5235987755982987 -3.141592653589793  0.5235987755982987 0.5235987755982987 -3.141592653589793  1.047197551196597 0.5235987755982987 -3.141592653589793  1.570796326794897 0.5235987755982987 -3.141592653589793  2.094395102393196 0.5235987755982987 -3.141592653589793  2.617993877991494 0.5235987755982987 -3.141592653589793  3.141592653589793 0.5235987755982987 -3.141592653589793  -3.141592653589793 1.047197551196597 -3.141592653589793  -2.617993877991494 1.047197551196597 -3.141592653589793  -2.094395102393196 1.047197551196597 -3.141592653589793  -1.570796326794897 1.047197551196597 -3.141592653589793  -1.047197551196598 1.047197551196597 -3.141592653589793  -0.5235987755982987 1.047197551196597 -3.141592653589793  0 1.047197551196597 -3.141592653589793  0.5235987755982987 1.047197551196597 -3.141592653589793  1.047197551196597 1.047197551196597 -3.141592653589793  1.570796326794897 1.047197551196597 -3.141592653589793  2.094395102393196 1.047197551196597 -3.141592653589793  2.617993877991494 1.047197551196597 -3.141592653589793  3.141592653589793 1.047197551196597 -3.141592653589793  -3.141592653589793 1.570796326794897 -3.141592653589793  -2.617993877991494 1.570796326794897 -3.141592653589793  -2.094395102393196 1.570796326794897 -3.141592653589793  -1.570796326794897 1.570796326794897 -3.141592653589793  -1.047197551196598 1.570796326794897 -3.141592653589793  -0.5235987755982987 1.570796326794897 -3.141592653589793  0 1.570796326794897 -3.141592653589793  0.5235987755982987 1.570796326794897 -3.141592653589793  1.047197551196597 1.570796326794897 -3.141592653589793  1.570796326794897 1.570796326794897 -3.141592653589793  2.094395102393196 1.570796326794897 -3.141592653589793  2.617993877991494 1.570796326794897 -3.141592653589793  3.141592653589793 1.570796326794897 -3.141592653589793  -3.141592653589793 2.094395102393196 -3.141592653589793  -2.617993877991494 2.094395102393196 -3.141592653589793  -2.094395102393196 2.094395102393196 -3.141592653589793  -1.570796326794897 2.094395102393196 -3.141592653589793  -1.047197551196598 2.094395102393196 -3.141592653589793  -0.5235987755982987 2.094395102393196 -3.141592653589793  0 2.094395102393196 -3.141592653589793  0.5235987755982987 2.094395102393196 -3.141592653589793  1.047197551196597 2.094395102393196 -3.141592653589793  1.570796326794897 2.094395102393196 -3.141592653589793  2.094395102393196 2.094395102393196 -3.141592653589793  2.617993877991494 2.094395102393196 -3.141592653589793  3.141592653589793 2.094395102393196 -3.141592653589793  -3.141592653589793 2.617993877991494 -3.141592653589793  -2.617993877991494 2.617993877991494 -3.141592653589793  -2.094395102393196 2.617993877991494 -3.141592653589793  -1.570796326794897 2.617993877991494 -3.141592653589793  -1.047197551196598 2.617993877991494 -3.141592653589793  -0.5235987755982987 2.617993877991494 -3.141592653589793  0 2.617993877991494 -3.141592653589793  0.5235987755982987 2.617993877991494 -3.141592653589793  1.047197551196597 2.617993877991494 -3.141592653589793  1.570796326794897 2.617993877991494 -3.141592653589793  2.094395102393196 2.617993877991494 -3.141592653589793  2.617993877991494 2.617993877991494 -3.141592653589793  3.141592653589793 2.617993877991494 -3.141592653589793  -3.141592653589793 3.141592653589793 -3.141592653589793  -2.617993877991494 3.141592653589793 -3.141592653589793  -2.094395102393196 3.141592653589793 -3.141592653589793  -1.570796326794897 3.141592653589793 -3.141592653589793  -1.047197551196598 3.141592653589793 -3.141592653589793  -0.5235987755982987 3.141592653589793 -3.141592653589793  0 3.141592653589793 -3.141592653589793  0.5235987755982987 3.141592653589793 -3.141592653589793  1.047197551196597 3.141592653589793 -3.141592653589793  1.570796326794897 3.141592653589793 -3.141592653589793  2.094395102393196 3.141592653589793 -3.141592653589793  2.617993877991494 3.141592653589793 -3.141592653589793  3.141592653589793 3.141592653589793 -3.141592653589793  -3.141592653589793 -3.141592653589793 -2.617993877991494  -2.617993877991494 -3.141592653589793 -2.617993877991494  -2.094395102393196 -3.141592653589793 -2.617993877991494  -1.570796326794897 -3.141592653589793 -2.617993877991494  -1.047197551196598 -3.141592653589793 -2.617993877991494  -0.5235987755982987 -3.141592653589793 -2.617993877991494  0 -3.141592653589793 -2.617993877991494  0.5235987755982987 -3.141592653589793 -2.617993877991494  1.047197551196597 -3.141592653589793 -2.617993877991494  1.570796326794897 
[...]
<PointData  Scalars="f_73480"> 
<DataArray  type="Float64"  Name="f_73480"  format="ascii">5.6131262947373813e-02  4.5191681575067130e-02  2.1398648598607115e-02  -2.6448580700144794e-03  -1.4733883429313751e-02  -4.3095225411749503e-02  -5.5396070852484838e-02  -4.1226169472948812e-02  -2.2855373965026994e-02  -2.8658470221365538e-03  1.6552640048058651e-02  4.1424168278425308e-02  5.6131262947373813e-02  4.6907822420853014e-02  -5.2224574127905565e-01  -9.1788779178676683e-01  -1.0637010177800643e+00  -9.6527435834353825e-01  -5.9560964512391534e-01  -4.4695896947369168e-02  5.2337264772285819e-01  9.2543442359965067e-01  1.0671191154608799e+00  9.5328650848480811e-01  5.8945521438183623e-01  4.6907822420853014e-02  1.7449288127361507e-02  -9.2782430366921176e-01  -1.5727195600467068e+00  -1.8174404064777188e+00  -1.6084637979468261e+00  -9.5194192978551551e-01  -1.7166731873032675e-02  9.1321973410288704e-01  1.5732843511450012e+00  1.8165371337903129e+00  1.6128930139999760e+00  9.6599936075094450e-01  1.7449288127361507e-02  -4.2999581027475703e-04  -1.0621514914504586e+00  -1.8209890981774530e+00  -2.0892952740533142e+00  -1.8160554443355663e+00  -1.0656320380933721e+00  8.9533118645337766e-04  1.0643214975953745e+00  1.8159839310514039e+00  2.0830448888701381e+00  1.8133557256722117e+00  1.0632837630364387e+00  -4.2999581027475703e-04  -1.6732838902377440e-02  -9.5287692011655323e-01  -1.6125702346404631e+00  -1.8150137779891202e+00  -1.5743757736198150e+00  -9.2724125621646691e-01  1.8143476586488873e-02  9.6680737854136500e-01  1.6157860617083049e+00  1.8113341345359575e+00  1.5725497425124260e+00  9.1243683305243872e-01  -1.6732838902377440e-02  -4.2442042472288381e-02  -5.9679561489440480e-01  -9.6359718605827449e-01  -1.0652459144118298e+00  -9.1151297107545215e-01  -5.2117007642235158e-01  4.4809077229993950e-02  5.9476704525495194e-01  9.5022937410558128e-01  1.0670341408051403e+00  9.2499729986200074e-01  5.2172173942874822e-01  -4.2442042472288381e-02  -5.0924857013182036e-02  -4.2813020214477984e-02  -1.8773215903401006e-02  3.6886810174135634e-04  2.1114779785133948e-02  4.0402792215200267e-02  5.3653253200052549e-02  4.0503868302953570e-02  2.1492730985854282e-02  -2.3435737511757486e-03  -1.8148495635894626e-02  -4.3898541182958127e-02  -5.0924857013182036e-02  -4.4158391678385582e-02  5.2111884099401384e-01  9.2527822815242156e-01  1.0697148418660352e+00  9.5240275142192565e-01  5.9449657392879995e-01  4.1513250598252040e-02  -5.2191278520666340e-01  -9.1403253253656425e-01  -1.0657170375118419e+00  -9.6139372646447085e-01  -5.9450721169132359e-01  -4.4158391678385582e-02  -2.0151666227976397e-02  9.1555362413490482e-01  1.5746805713037193e+00  1.8137965266509226e+00  1.6148676862617115e+00  9.6238951074409451e-01  1.9285102232107072e-02  -9.2789127621713974e-01  -1.5718616270459553e+00  -1.8186259436580683e+00  -1.6082075079021754e+00  -9.5137046791450297e-01  -2.0151666227976397e-02  8.9043409520011868e-04  1.0674881911768710e+00  1.8168529298658802e+00  2.0884005040166849e+00  1.8191403144192300e+00  1.0590622344918521e+00  1.0558284682408558e-03  -1.0668279146742012e+00  -1.8165926199522353e+00  -2.0862333563427096e+00  -1.8168432370911420e+00  -1.0664721543736950e+00  8.9043409520011868e-04  1.6330297343739673e-02  9.6331654398568378e-01  1.6153606930425513e+00  1.8122553053514767e+00  1.5708541113784578e+00  9.1607762503032830e-01  -2.1670422938862555e-02  -9.5363727286420974e-01  -1.6037022100563845e+00  -1.8167605547120458e+00  -1.5707926761532516e+00  -9.2352785786329028e-01  1.6330297343739673e-02  4.0458774992104485e-02  5.9625267498045698e-01  9.5332322470359665e-01  1.0643268634928267e+00  9.2849363605677204e-01  5.2499274651084993e-01  -4.5765631464198486e-02  -5.9258870650943696e-01  -9.6367379541235654e-01  -1.0657739241928996e+00  -9.1376407840451312e-01  -5.2144869553838147e-01  4.0458774992104485e-02  5.6131262947373813e-02  4.5191681575067130e-02  2.1398648598607115e-02  -2.6448580700144794e-03  -1.4733883429313751e-02  -4.3095225411749503e-02  -5.5396070852484838e-02  -4.1226169472948812e-02  -2.2855373965026994e-02  -2.8658470221365538e-03  1.6552640048058651e-02  4.1424168278425308e-02  5.6131262947373813e-02  4.8701502615253529e-02  2.2303207550258438e-02  -2.3035093969744585e-03  -2.1464855374041865e-02  -3.6798466778569537e-02  -5.2248640123297427e-02  -4.2895990803067517e-02  -2.5705422434829879e-02  6.1934310070003969e-03  2.3733229018877627e-02  4.2253615667131400e-02  5.3689467867788554e-02  4.8701502615253529e-02  1.9991296020726756e-02  -4.6964055346586991e-01  -8.1522574792654545e-01  -9.4905679621427552e-01  -8.4981864546416575e-01  -5.0800756522149004e-01  -2.7388161780024366e-02  4.6993901699281193e-01  8.1504280515208405e-01  9.4444918563889524e-01  8.3988279744102179e-01  5.0965820724283317e-01  1.9991296020726756e-02  -4.5999689619383444e-03  -8.1737461178184156e-01  -1.3877972790571576e+00  -1.5991848064210668e+00  -1.3978793768688065e+00  -8.1086285179413231e-01  4.2336685934663085e-03  8.1182958727282306e-01  1.3874003879372707e+00  1.5962007926681605e+00  1.3994819755839474e+00  8.2131994037191280e-01  -4.5999689619383444e-03  -2.3658500958700104e-02  -9.4655617450382568e-01  -1.5953036652530388e+00  -1.8182665739156270e+00  -1.5755554110319399e+00  -9.0724615392758823e-01  2.3497440751368375e-02  9.4798415182806428e-01  1.5997589338767855e+00  1.8197105062183301e+00  1.5676828692280544e+00  9.0467718878794490e-01  -2.3658500958700104e-02  -4.2333870760046036e-02  -8.4372427081133305e-01  -1.3995364677372133e+00  -1.5677953315882283e+00  -1.3536862239897791e+00  -7.7902999511315363e-01  4.0133814212896406e-02  8.4793234405790707e-01  1.3939304611725170e+00  1.5678925697724766e+00  1.3492732611636151e+00  7.7154487807326133e-01  -4.2333870760046036e-02  -5.1070187493663682e-02  -5.1080678408450730e-01  -8.1787977619612440e-01  -9.0714194859079444e-01  -7.6990232330228925e-01  -4.2425758947397341e-01  5.2730589840130702e-02  5.0933577753529635e-01  8.1193407748482693e-01  9.1108491348693377e-01  7.8075415349504385e-01  4.2315498137888741e-01  -5.1070187493663682e-02  -4.7730875516882924e-02  -2.0720562897453387e-02  3.3383813039986636e-03  2.5585613682282779e-02  4.1453228589469357e-02  5.2284530880240904e-02  4.6228765013439546e-02  2.4298277335667626e-02  -1.5611050246057390e-03  -2.3004374048967140e-02  -4.0395075802902275e-02  -5.1213750856385028e-02  -4.7730875516882924e-02  -2.6198325838168692e-02  4.6586558808186845e-01  8.1755301194869145e-01  9.4401047635671287e-01  8.4452652711564224e-01  5.0972694246847039e-01  2.2440774477408956e-02  -4.7002066881437404e-01  -8.1250963286457611e-01  -9.4738279009944182e-01  -8.4886598201274854e-01  -5.1088685907797415e-01  -2.6198325838168692e-02  6.7772510499544050e-03  8.1448664172900664e-01  1.3848335290710230e+00  1.5988225083692007e+00  1.3998405147309483e+00  8.2113738199851793e-01  -8.8896007351911693e-03  -8.1432608999355260e-01  -1.3856633746747027e+00  -1.6000020006031452e+00  -1.3907928320328975e+00  -8.0992033825718379e-01  6.7772510499544050e-03  1.9974178467081407e-02  9.5092500114982703e-01  1.5985967280551241e+00  1.8217773391814136e+00  1.5633332158462137e+00  9.0709335144862036e-01  -2.5804384616244569e-02  -9.4771239084552650e-01  -1.5950011307064713e+00  -1.8189429370438068e+00  -1.5742921973938671e+00  -9.0761971584507972e-01  1.9974178467081407e-02  4.2390475394065340e-02  8.4822882010424883e-01  1.3965364300288756e+00  1.5700222059172941e+00  1.3525381984218827e+00  7.7423856700167082e-01  -4.5728942688649077e-02  -8.4170201169345527e-01  -1.3966585357015162e+00  -1.5714689376176318e+00  -1.3516001908678281e+00  -7.8393367088331978e-01  4.2390475394065340e-02  5.5085758120143012e-02  5.1480643377170388e-01  8.0616147965285989e-01  9.0975953984820035e-01  7.8099335553808602e-01  4.2186224078042661e-01  -4.6274584331654843e-02  -5.1214951442425027e-01  -8.1368332666810894e-01  -9.0440984473205865e-01  -7.7249169922702909e-01  -4.2528533493279441e-01  5.5085758120143012e-02  4.8701502615253529e-02  2.2303207550258438e-02  -2.3035093969744585e-03  -2.1464855374041865e-02  -3.6798466778569537e-02  -5.2248640123297427e-02  -4.2895990803067517e-02  -2.5705422434829879e-02  6.1934310070003969e-03  2.3733229018877627e-02  4.2253615667131400e-02  5.3689467867788554e-02  4.8701502615253529e-02  2.2545762760085571e-02  1.8372070778905900e-03  -2.1957248737248393e-02  -4.2408564730000937e-02  -4.8347518607267055e-02  -4.5713498897861790e-02  -2.5011185059730438e-02  2.0113601431361989e-03  2.5773702403591000e-02  3.8365856572159386e-02  4.7245013674997359e-02  3.7755390043693576e-02  2.2545762760085571e-02  4.1188759827499675e-03  -2.9245098242868461e-01  -4.9807528116585509e-01  -5.7857534869881910e-01  -4.9835466128316952e-01  -2.9599104101249057e-01  1.9687333053145881e-03  2.8789131941913004e-01  4.9838942759573451e-01  5.7816537977166638e-01  5.0328554694203664e-01  2.9023158677488997e-01  4.1188759827499675e-03  -2.3188509880586444e-02  -4.9986604424576037e-01  -8.3771412495942899e-01  -9.4901063117485929e-01  -8.1188762845546081e-01  -4.5469857402506653e-01  1.9532572760227029e-02  5.0259089586801509e-01  8.3576652797456263e-01  9.4799951549137251e-01  8.1098095532689607e-01  4.5260248232836925e-01  -2.3188509880586444e-02  -4.0899236408816361e-02  -5.7585115539611509e-01  -9.4859303876752132e-01  -1.0650280290616154e+00  -9.0265674654767314e-01  -5.0425440962728119e-01  4.2037573132296065e-02  5.7743840509961097e-01  9.5070165362772208e-01  1.0622218531870531e+00  9.0347027253641821e-01  5.0288174231424243e-01  -4.0899236408816361e-02  -4.9674793086940582e-02  -5.0284288397489785e-01  -8.1092049376960251e-01  -9.0334070344670458e-01  -7.6260158730676275e-01  -4.1344968538240273e-01  5.1313190548564439e-02  5.0150128325399213e-01  8.1269866817861369e-01  9.0179653004281346e-01  7.5994904955641462e-01  4.1686359115760535e-01  -4.9674793086940582e-02  -4.1868420347874899e-02  -2.9079853524051430e-01  -4.5645390972210859e-01  -4.9949789235380621e-01  -4.1423598008682050e-01  -2.1140670030405861e-01  4.5141631387362692e-02  2.9384642322996268e-01  4.5417488095059905e-01  5.0332444860429548e-01  4.1382899975902593e-01  2.1408886784372599e-01  -4.1868420347874899e-02  -2.7041628142897772e-02  1.0140978720251273e-03  2.3487567621087543e-02  4.1563275960254685e-02  4.9038623093331950e-02  4.3027772391691629e-02  2.5721010622486370e-02  -1.3014584758652495e-03  -2.3707392601691218e-02  -4.2616324251460377e-02  -4.9462263957601171e-02  -4.4729798674935012e-02  -2.7041628142897772e-02  7.6287989825658516e-04  2.8762182917411966e-01  4.9691471983816343e-01  5.7890126319243707e-01  5.0475481372577313e-01  2.9205355671297367e-01  1.3940342027965308e-03  -2.8889048035250281e-01  -5.0090759159796194e-01  -5.7387011566076118e-01  -5.0014007971278829e-01  -2.9351230126758848e-01  7.6287989825658516e-04  2.3224142665208204e-02  4.9501741203696903e-01  8.3740580653695806e-01  9.4682468940958675e-01  8.0917627378029144e-01  4.5187066336664444e-01  -2.4229744289816606e-02  -5.0097195432144237e-01  -8.3593224693274926e-01  -9.4800475774992243e-01  -8.0909797051437460e-01  -4.5396609767038060e-01  2.3224142665208204e-02  4.3074933862670924e-02  5.7579730294504028e-01  9.4900587323336538e-01  1.0663213695971714e+00  9.0209696816558438e-01  5.0141518829003517e-01  -4.4936897122161104e-02  -5.7830621400050475e-01  -9.4721041116462601e-01  -1.0644801479979844e+00  -9.0138160700341841e-01  -5.0516524015620012e-01  4.3074933862670924e-02  4.8842012832167277e-02  5.0208927814718229e-01  8.1095642390452172e-01  9.0218430258385451e-01  7.6675581678463378e-01  4.1375228538496350e-01  -5.0440902904644862e-02  -4.9986459105530556e-01  -8.1011037434577249e-01  -9.0271594937631860e-01  -7.6262208927814223e-01  -4.1494920032161869e-01  4.8842012832167277e-02  4.7953905228889010e-02  2.8933947458134029e-01  4.5627286897472791e-01  5.0473443206613589e-01  4.1225144063244107e-01  2.1490526688872594e-01  -3.8883813651181431e-02  -2.8996925839309839e-01  -4.5601270374449598e-01  -5.0015948392503617e-01  -4.1401670308177935e-01  -2.1663016719386258e-01  4.7953905228889010e-02  2.2545762760085571e-02  1.8372070778905900e-03  -2.1957248737248393e-02  -4.2408564730000937e-02  -4.8347518607267055e-02  -4.5713498897861790e-02  -2.5011185059730438e-02  2.0113601431361989e-03  2.5773702403591000e-02  3.8365856572159386e-02  4.7245013674997359e-02  3.7755390043693576e-02  2.2545762760085571e-02  2.5278496936909341e-03  -2.2392066013154955e-02  -4.0776502037201783e-02  -5.1082854166882678e-02  -4.2033514000349506e-02  -2.3576219063577899e-02  -2.3955640894165003e-04  2.0781871716519653e-02  4.0231468190587365e-02  5.1545276893109067e-02  3.9140337469940535e-02  2.5927041291380553e-02  2.5278496936909341e-03  -2.3569304075566448e-02  -4.3735058634200949e-02  -5.3473456993237453e-02  -4.5362444553022616e-02  -2.5574169009225097e-02  -1.0007471441618005e-03  2.4087787253961067e-02  4.5081760349113667e-02  5.2041825760104708e-02  4.0132201490176489e-02  2.3547309295283800e-02  3.1944333105704895e-03  -2.3569304075566448e-02  -4.2830276222370116e-02  -5.0432417203493743e-02  -4.4448953229804120e-02  -2.7437332041071891e-02  -5.8264686939785398e-04  2.1601392560382432e-02  4.3633861216764443e-02  4.5983426800460990e-02  4.6247843562485208e-02  2.8606879921071200e-02  -7.9741637215173012e-04  -2.1046627249068868e-02  -4.2830276222370116e-02  -4.9853689724267271e-02  -4.2713616856860884e-02  -2.7320018942203133e-02  -1.9768221937096040e-03  2.6928126342922149e-02  4.5194508902995340e-02  4.7366386399897653e-02  4.2165433087488491e-02  2.7598157360527585e-02  5.8554863638457598e-04  -2.5671195909380773e-02  -4.0375996800814454e-02  -4.9853689724267271e-02  -4.0585635806400663e-02  -2.1200730335203775e-02  -1.6347670075474478e-03  2.6451887116405479e-02  4.9976782928421143e-02  5.0457604240002729e-02  4.3823276892872687e-02  2.4413872194018253e-02  -4.8236960181540520e-04  -2.4301209794934754e-02  -4.5741776527545776e-02  -5.0966929361127775e-02  -4.0585635806400663e-02  -2.7266754957159942e-02  -1.0555303576995536e-03  2.3312187477089838e-02  4.2489830920114754e-02  5.1797704735683667e-02  4.3237691680757168e-02  2.4689226712732899e-02  2.7503653564188687e-03  -2.4487425015337752e-02  -4.3333124951833280e-02  -5.3262900228222353e-02  -4.3306936248347139e-02  -2.7266754957159942e-02  7.3212512863096073e-04  2.6735186132245424e-02  4.1297076692830448e-02  4.8974416675674037e-02  4.2650417956555026e-02  2.3528078645251905e-02  2.0820800634057529e-03  -2.1998571967510903e-02  -4.1662404580612433e-02  -4.9055558430473635e-02  -3.9997743373961704e-02  -2.8284576183080948e-02  7.3212512863096073e-04  2.2437750471675354e-02  4.2329141240487304e-02  4.9026441741684176e-02  4.4720197390667057e-02  2.3599564567708262e-02  1.1162219344865441e-03  -2.1735599570145956e-02  -4.2645506977463332e-02  -5.1024679802886580e-02  -3.9503012508969378e-02  -2.5460745126162448e-02  2.0881018675016346e-04  2.2437750471675354e-02  3.9749499365541230e-02  4.9776815154213380e-02  4.6261090645792764e-02  2.4838239577796059e-02  -3.4528574878587084e-03  -2.3646595170936858e-02  -4.3998971377966295e-02  -5.2646522290100681e-02  -4.4070549257575149e-02  -2.7064522507554457e-02  1.4687437763419877e-03  2.4275282582605844e-02  3.9749499365541230e-02  4.5861085069553498e-02  4.3194659645762808e-02  2.6693480088495636e-02  -7.6783512461456901e-04  -2.6768363509844306e-02  -4.5940391593624785e-02  -4.8347182453290054e-02  -4.2718069360008180e-02  -2.5125324628187801e-02  2.5429141474139235e-04  2.9685445827433345e-02  4.3203906568581973e-02  4.5861085069553498e-02  4.3561849441522610e-02  2.7078027136931408e-02  1.3482925262828180e-03  -2.5346800282709733e-02  -4.5801052372223726e-02  -5.1411498651806935e-02  -4.6155248645899927e-02  -2.1020862184904371e-02  -6.4348859073427845e-04  2.6350286961414410e-02  4.4096110735905442e-02  4.9421902244837480e-02  4.3561849441522610e-02  2.4501311675015437e-02  -1.2364126612101161e-03  -2.3284013995330234e-02  -4.1502070970780167e-02  -5.0231561304203809e-02  -4.3528451091234453e-02  -2.3706152519830253e-02  3.5531802411486313e-04  2.5430766200453665e-02  3.8307974705173664e-02  5.1232195745292343e-02  4.1781293185323413e-02  2.4501311675015437e-02  2.5278496936909341e-03  -2.2392066013154955e-02  -4.0776502037201783e-02  -5.1082854166882678e-02  -4.2033514000349506e-02  -2.3576219063577899e-02  -2.3955640894165003e-04  2.0781871716519653e-02  4.0231468190587365e-02  5.1545276893109067e-02  3.9140337469940535e-02  2.5927041291380553e-02  2.5278496936909341e-03  -2.5439008332712603e-02  -4.3072372886997980e-02  -5.1924676568022361e-02  -4.2710622620318321e-02  -2.6016637452311905e-02  -2.1470723472282697e-04  2.1912902321745246e-02  4.4840841240548247e-02  4.9913935931330776e-02  4.4707906873184440e-02  2.2875878426698325e-02  3.6146990149402295e-03  -2.5439008332712603e-02  -4.1675743934897133e-02  2.1391394443769737e-01  4.1544340486683123e-01  5.0297002436934901e-01  4.5600828101727342e-01  2.9072355494582286e-01  4.7551262382924411e-02  -2.1623566805713296e-01  -4.1754264917187645e-01  -5.0528304738902685e-01  -4.5504310051414698e-01  -2.9050076258389779e-01  -4.1675743934897133e-02  -4.7551085369588811e-02  4.1393271525773639e-01  7.6427762555886558e-01  9.0317309062159856e-01  8.1158275121823875e-01  5.0234696301147397e-01  4.7562618722431498e-02  -4.1677050893641643e-01  -7.6243356003984752e-01  -9.0253687751288336e-01  -8.0912971793424082e-01  -5.0160669554661774e-01  -4.7551085369588811e-02  -4.1730552332635118e-02  5.0034662097174054e-01  9.0126127130988720e-01  1.0677633884400897e+00  9.4936021093914269e-01  5.7436183630559923e-01  3.7912969583339576e-02  -5.0516451747200997e-01  -8.9997994207631082e-01  -1.0640797241266651e+00  -9.4675407717954607e-01  -5.7484865255280182e-01  -4.1730552332635118e-02  -2.0172846623192763e-02  4.5335275433586203e-01  8.1248108314742218e-01  9.5085459894793156e-01  8.3354777986199147e-01  4.9540242393825556e-01  2.3417510897218136e-02  -4.5607705445875224e-01  -8.1236743839966441e-01  -9.5031369113682007e-01  -8.3523808655845233e-01  -4.9897645142967045e-01  -2.0172846623192763e-02  -1.9682387551138599e-04  2.9103984930894000e-01  5.0105224316861341e-01  5.7451513670414256e-01  4.9768628251202551e-01  2.8823087461336838e-01  3.5533710998152195e-03  -2.9333277572697308e-01  -5.0427712537062797e-01  -5.7722635139098333e-01  -4.9818840951377585e-01  -2.9139600861008025e-01  -1.9682387551138599e-04  2.5280866301310292e-02  4.4635480575162541e-02  4.7335320442135793e-02  4.1410917110678201e-02  2.5429008785992392e-02  1.5999966509940642e-03  -2.2836730816303660e-02  -4.1661891892818312e-02  -4.6311033316017748e-02  -3.4763880393407658e-02  -2.0801456855669420e-02  -2.9776314972618928e-03  2.5280866301310292e-02  4.6559048673366202e-02  -2.1512824453028373e-01  -4.1799234099010862e-01  -4.9978498701925334e-01  -4.5702097641366241e-01  -2.9187818167821783e-01  -4.2106122899734692e-02  2.1523292840393998e-01  4.1899483150653449e-01  5.0330624576614702e-01  4.5529283051020181e-01  2.8786298681935635e-01  4.6559048673366202e-02  4.7364330519236233e-02  -4.1452358311933607e-01  -7.6194949565233083e-01  -9.0200930888914987e-01  -8.1158635630452525e-01  -5.0140851733743652e-01  -5.1557018779613169e-02  4.2132447389355809e-01  7.6284207053570563e-01  9.0668455716548990e-01  8.1017577098143745e-01  5.0291862971442347e-01  4.7364330519236233e-02  3.7547982927385273e-02  -5.0185001928292017e-01  -9.0578748179383206e-01  -1.0644844529643021e+00  -9.4921882953668213e-01  -5.7816598306033040e-01  -4.1736819231506767e-02  5.0293390652788983e-01  9.0318474616967070e-01  1.0677351412507472e+00  9.5470134675790852e-01  5.7711951260567484e-01  3.7547982927385273e-02  1.9592762734409769e-02  -4.5714548286767215e-01  -8.0919652990501034e-01  -9.4777946571775673e-01  -8.3756805896406727e-01  -5.0099182488500393e-01  -2.4757558642307931