<?xml version="1.0"?>
<VTKFile type="UnstructuredGrid"  version="0.1"  >
<UnstructuredGrid>
<Piece  NumberOfPoints="2197" NumberOfCells="10368">
<Points>
<DataArray  type="Float64"  NumberOfComponents="3"  format="ascii">-3.141592653589793 -3.141592653589793 -3.141592653589793  -2.617993877991494 -3.141592653589793 -3.141592653589793  -2.094395102393196 -3.141592653589793 -3.141592653589793  -1.570796326794897 -3.141592653589793 -3.141592653589793  -1.047197551196598 -3.141592653589793 -3.141592653589793  -0.5235987755982987 -3.141592653589793 -3.141592653589793  0 -3.141592653589793 -3.141592653589793  0.5235987755982987 -3.141592653589793 -3.141592653589793  1.047197551196597 -3.141592653589793 -3.141592653589793  1.570796326794897 -3.141592653589793 -3.141592653589793  2.094395102393196 -3.141592653589793 -3.141592653589793  2.617993877991494 -3.141592653589793 -3.141592653589793  3.141592653589793 -3.141592653589793 -3.141592653589793  -3.141592653589793 -2.617993877991494 -3.141592653589793  -2.617993877991494 -2.617993877991494 -3.141592653589793  -2.094395102393196 -2.617993877991494 -3.141592653589793  -1.570796326794897 -2.617993877991494 -3.141592653589793  -1.047197551196598 -2.617993877991494 -3.141592653589793  -0.5235987755982987 -2.617993877991494 -3.141592653589793  0 -2.617993877991494 -3.141592653589793  0.5235987755982987 -2.617993877991494 -3.141592653589793  1.047197551196597 -2.617993877991494 -3.141592653589793  1.570796326794897 -2.617993877991494 -3.141592653589793  2.094395102393196 -2.617993877991494 -3.141592653589793  2.617993877991494 -2.617993877991494 -3.141592653589793  3.141592653589793 -2.617993877991494 -3.141592653589793  -3.141592653589793 -2.094395102393196 -3.141592653589793  -2.617993877991494 -2.094395102393196 -3.141592653589793  -2.094395102393196 -2.094395102393196 -3.141592653589793  -1.570796326794897 -2.094395102393196 -3.141592653589793  -1.047197551196598 -2.094395102393196 -3.141592653589793  -0.5235987755982987 -2.094395102393196 -3.141592653589793  0 -2.094395102393196 -3.141592653589793  0.5235987755982987 -2.094395102393196 -3.141592653589793  1.047197551196597 -2.094395102393196 -3.141592653589793  1.570796326794897 -2.094395102393196 -3.141592653589793  2.094395102393196 -2.094395102393196 -3.141592653589793  2.617993877991494 -2.094395102393196 -3.141592653589793  3.141592653589793 -2.094395102393196 -3.141592653589793  -3.141592653589793 -1.570796326794897 -3.141592653589793  -2.617993877991494 -1.570796326794897 -3.141592653589793  -2.094395102393196 -1.570796326794897 -3.141592653589793  -1.570796326794897 -1.570796326794897 -3.141592653589793  -1.047197551196598 -1.570796326794897 -3.141592653589793  -0.5235987755982987 -1.570796326794897 -3.141592653589793  0 -1.570796326794897 -3.141592653589793  0.5235987755982987 -1.570796326794897 -3.141592653589793  1.047197551196597 -1.570796326794897 -3.141592653589793  1.570796326794897 -1.570796326794897 -3.141592653589793  2.094395102393196 -1.570796326794897 -3.141592653589793  2.617993877991494 -1.570796326794897 -3.141592653589793  3.141592653589793 -1.570796326794897 -3.141592653589793  -3.141592653589793 -1.047197551196598 -3.141592653589793  -2.617993877991494 -1.047197551196598 -3.141592653589793  -2.094395102393196 -1.047197551196598 -3.141592653589793  -1.570796326794897 -1.047197551196598 -3.141592653589793  -1.047197551196598 -1.047197551196598 -3.141592653589793  -0.5235987755982987 -1.047197551196598 -3.141592653589793  0 -1.047197551196598 -3.141592653589793  0.5235987755982987 -1.047197551196598 -3.141592653589793  1.047197551196597 -1.047197551196598 -3.141592653589793  1.570796326794897 -1.047197551196598 -3.141592653589793  2.094395102393196 -1.047197551196598 -3.141592653589793  2.617993877991494 -1.047197551196598 -3.141592653589793  3.141592653589793 -1.047197551196598 -3.141592653589793  -3.141592653589793 -0.5235987755982987 -3.141592653589793  -2.617993877991494 -0.5235987755982987 -3.141592653589793  -2.094395102393196 -0.5235987755982987 -3.141592653589793  -1.570796326794897 -0.5235987755982987 -3.141592653589793  -1.047197551196598 -0.5235987755982987 -3.141592653589793  -0.5235987755982987 -0.5235987755982987 -3.141592653589793  0 -0.5235987755982987 -3.141592653589793  0.5235987755982987 -0.5235987755982987 -3.141592653589793  1.047197551196597 -0.5235987755982987 -3.141592653589793  1.570796326794897 -0.5235987755982987 -3.141592653589793  2.094395102393196 -0.5235987755982987 -3.141592653589793  2.617993877991494 -0.5235987755982987 -3.141592653589793  3.141592653589793 -0.5235987755982987 -3.141592653589793  -3.141592653589793 0 -3.141592653589793  -2.617993877991494 0 -3.141592653589793  -2.094395102393196 0 -3.141592653589793  -1.570796326794897 0 -3.141592653589793  -1.047197551196598 0 -3.141592653589793  -0.5235987755982987 0 -3.141592653589793  0 0 -3.141592653589793  0.5235987755982987 0 -3.141592653589793  1.047197551196597 0 -3.141592653589793  1.570796326794897 0 -3.141592653589793  2.094395102393196 0 -3.141592653589793  2.617993877991494 0 -3.141592653589793  3.141592653589793 0 -3.141592653589793  -3.141592653589793 0.5235987755982987 -3.141592653589793  -2.617993877991494 0.5235987755982987 -3.141592653589793  -2.094395102393196 0.5235987755982987 -3.141592653589793  -1.570796326794897 0.5235987755982987 -3.141592653589793  -1.047197551196598 0.5235987755982987 -3.141592653589793  -0.5235987755982987 0.5235987755982987 -3.141592653589793  0 0.5235987755982987 -3.141592653589793  0.5235987755982987 0.5235987755982987 -3.141592653589793  1.047197551196597 0.5235987755982987 -3.141592653589793  1.570796326794897 0.5235987755982987 -3.141592653589793  2.094395102393196 0.5235987755982987 -3.141592653589793  2.617993877991494 0.5235987755982987 -3.141592653589793  3.141592653589793 0.5235987755982987 -3.141592653589793  -3.141592653589793 1.047197551196597 -3.141592653589793  -2.617993877991494 1.047197551196597 -3.141592653589793  -2.094395102393196 1.047197551196597 -3.141592653589793  -1.570796326794897 1.047197551196597 -3.141592653589793  -1.047197551196598 1.047197551196597 -3.141592653589793  -0.5235987755982987 1.047197551196597 -3.141592653589793  0 1.047197551196597 -3.141592653589793  0.5235987755982987 1.047197551196597 -3.141592653589793  1.047197551196597 1.047197551196597 -3.141592653589793  1.570796326794897 1.047197551196597 -3.141592653589793  2.094395102393196 1.047197551196597 -3.141592653589793  2.617993877991494 1.047197551196597 -3.141592653589793  3.141592653589793 1.047197551196597 -3.141592653589793  -3.141592653589793 1.570796326794897 -3.141592653589793  -2.617993877991494 1.570796326794897 -3.141592653589793  -2.094395102393196 1.570796326794897 -3.141592653589793  -1.570796326794897 1.570796326794897 -3.141592653589793  -1.047197551196598 1.570796326794897 -3.141592653589793  -0.5235987755982987 1.570796326794897 -3.141592653589793  0 1.570796326794897 -3.141592653589793  0.5235987755982987 1.570796326794897 -3.141592653589793  1.047197551196597 1.570796326794897 -3.141592653589793  1.570796326794897 1.570796326794897 -3.141592653589793  2.094395102393196 1.570796326794897 -3.141592653589793  2.617993877991494 1.570796326794897 -3.141592653589793  3.141592653589793 1.570796326794897 -3.141592653589793  -3.141592653589793 2.094395102393196 -3.141592653589793  -2.617993877991494 2.094395102393196 -3.141592653589793  -2.094395102393196 2.094395102393196 -3.141592653589793  -1.570796326794897 2.094395102393196 -3.141592653589793  -1.047197551196598 2.094395102393196 -3.141592653589793  -0.5235987755982987 2.094395102393196 -3.141592653589793  0 2.094395102393196 -3.141592653589793  0.5235987755982987 2.094395102393196 -3.141592653589793  1.047197551196597 2.094395102393196 -3.141592653589793  1.570796326794897 2.094395102393196 -3.141592653589793  2.094395102393196 2.094395102393196 -3.141592653589793  2.617993877991494 2.094395102393196 -3.141592653589793  3.141592653589793 2.094395102393196 -3.141592653589793  -3.141592653589793 2.617993877991494 -3.141592653589793  -2.617993877991494 2.617993877991494 -3.141592653589793  -2.094395102393196 2.617993877991494 -3.141592653589793  -1.570796326794897 2.617993877991494 -3.141592653589793  -1.047197551196598 2.617993877991494 -3.141592653589793  -0.5235987755982987 2.617993877991494 -3.141592653589793  0 2.617993877991494 -3.141592653589793  0.5235987755982987 2.617993877991494 -3.141592653589793  1.047197551196597 2.617993877991494 -3.141592653589793  1.570796326794897 2.617993877991494 -3.141592653589793  2.094395102393196 2.617993877991494 -3.141592653589793  2.617993877991494 2.617993877991494 -3.141592653589793  3.141592653589793 2.617993877991494 -3.141592653589793  -3.141592653589793 3.141592653589793 -3.141592653589793  -2.617993877991494 3.141592653589793 -3.141592653589793  -2.094395102393196 3.141592653589793 -3.141592653589793  -1.570796326794897 3.141592653589793 -3.141592653589793  -1.047197551196598 3.141592653589793 -3.141592653589793  -0.5235987755982987 3.141592653589793 -3.141592653589793  0 3.141592653589793 -3.141592653589793  0.5235987755982987 3.141592653589793 -3.141592653589793  1.047197551196597 3.141592653589793 -3.141592653589793  1.570796326794897 3.141592653589793 -3.141592653589793  2.094395102393196 3.141592653589793 -3.141592653589793  2.617993877991494 3.141592653589793 -3.141592653589793  3.141592653589793 3.141592653589793 -3.141592653589793  -3.141592653589793 -3.141592653589793 -2.617993877991494  -2.617993877991494 -3.141592653589793 -2.617993877991494  -2.094395102393196 -3.141592653589793 -2.617993877991494  -1.570796326794897 -3.141592653589793 -2.617993877991494  -1.047197551196598 -3.141592653589793 -2.617993877991494  -0.5235987755982987 -3.141592653589793 -2.617993877991494  0 -3.141592653589793 -2.617993877991494  0.5235987755982987 -3.141592653589793 -2.617993877991494  1.047197551196597 -3.141592653589793 -2.617993877991494  1.570796326794897 
[...]
<PointData  Scalars="f_103452"> 
<DataArray  type="Float64"  Name="f_103452"  format="ascii">6.0510058693441150e-02  4.6876364185534522e-02  1.7903587532368939e-02  -5.7948801144762103e-03  -7.5965536250418584e-03  -4.3149071668269597e-02  -6.0499268608103514e-02  -3.9884909598402712e-02  -1.9618992116099368e-02  -4.7592282757338159e-03  1.0105300559115809e-02  4.2411977150275490e-02  6.0510058693441150e-02  4.7873629237092659e-02  -5.4522118415865273e-01  -9.2943326772243806e-01  -1.0588418924690652e+00  -9.8496346602559548e-01  -6.1955871705496557e-01  -4.5940410812259080e-02  5.4596295319550658e-01  9.4990860449052483e-01  1.0628325348109942e+00  9.5689110036255143e-01  6.1129423517130510e-01  4.7873629237092659e-02  1.2510576239142250e-02  -9.5408130378739608e-01  -1.5506028093826436e+00  -1.7785176126479503e+00  -1.6054235144871216e+00  -9.5507779412823401e-01  -1.1579086084453946e-02  9.2276394076683055e-01  1.5527808962758165e+00  1.7775215466311907e+00  1.6115499968550810e+00  9.8473849944561853e-01  1.2510576239142250e-02  6.4905337435051079e-04  -1.0549704471433836e+00  -1.7842501925075742e+00  -2.0456128907372517e+00  -1.7767971998295504e+00  -1.0605757051923805e+00  2.4941892952563293e-03  1.0605387201262886e+00  1.7761664008800293e+00  2.0372119613912356e+00  1.7729249755611087e+00  1.0591571955177923e+00  6.4905337435051079e-04  -1.0592566969368699e-02  -9.5718809964444074e-01  -1.6105954265965743e+00  -1.7753154450464286e+00  -1.5535539097093687e+00  -9.5299825447836561e-01  1.3397411486086636e-02  9.8691132577312624e-01  1.6147659842240707e+00  1.7705208068733038e+00  1.5510901445772811e+00  9.2147850571091028e-01  -1.0592566969368699e-02  -4.3367140651563336e-02  -6.2091058571836844e-01  -9.8210929115223655e-01  -1.0619533372148706e+00  -9.1976586259814996e-01  -5.4340669928779539e-01  4.5538698613068355e-02  6.1828237375327433e-01  9.5382303284315795e-01  1.0613142005997367e+00  9.4914680422642228e-01  5.4466450416725998e-01  -4.3367140651563336e-02  -5.3548552697108440e-02  -4.3189061797193520e-02  -1.3601887093051795e-02  -5.3177384733438517e-05  1.5810540488189577e-02  4.1412900930704467e-02  5.6666972895484807e-02  4.1481896721699038e-02  1.6241277658117208e-02  -4.4854575779461779e-03  -1.2918222067717394e-02  -4.4908235775760211e-02  -5.3548552697108440e-02  -4.6496394057580236e-02  5.4465765987435655e-01  9.4909026257273843e-01  1.0651626437303814e+00  9.5657569160262468e-01  6.1791741370254749e-01  4.0973919912503771e-02  -5.4433563074512514e-01  -9.2360976104935233e-01  -1.0618435705427065e+00  -9.7978892232284687e-01  -6.1684320821702188e-01  -4.6496394057580236e-02  -1.4676356337675160e-02  9.2551041201506246e-01  1.5540120213861004e+00  1.7746037882480148e+00  1.6132959867584640e+00  9.8106544039578181e-01  1.5053256204770377e-02  -9.5377744194072911e-01  -1.5508274530155166e+00  -1.7795073627700504e+00  -1.6059782201815564e+00  -9.5411666888238378e-01  -1.4676356337675160e-02  1.2569640257457553e-03  1.0646685263256808e+00  1.7784194686423394e+00  2.0443580866461226e+00  1.7796656015643257e+00  1.0545690785256923e+00  1.2472475422691221e-03  -1.0620036568932860e+00  -1.7776060606516932e+00  -2.0416273775798834e+00  -1.7771483113745292e+00  -1.0624900433553293e+00  1.2569640257457553e-03  1.2151623942779128e-02  9.8271224454637851e-01  1.6138174406583112e+00  1.7717584715696655e+00  1.5502277763840493e+00  9.2428511953896597e-01  -1.6281660372899395e-02  -9.5814946840247439e-01  -1.5985780241348972e+00  -1.7774396027035997e+00  -1.5494615040411899e+00  -9.4692888627524474e-01  1.2151623942779128e-02  3.9298407020077863e-02  6.1962873776679617e-01  9.5708857543961257e-01  1.0593571791939018e+00  9.5337929565808055e-01  5.4990666279994360e-01  -4.8371157877832929e-02  -6.1513748778637589e-01  -9.8256645588960512e-01  -1.0619572502399852e+00  -9.2314234522846994e-01  -5.4393732230886715e-01  3.9298407020077863e-02  6.0510058693441150e-02  4.6876364185534522e-02  1.7903587532368939e-02  -5.7948801144762103e-03  -7.5965536250418584e-03  -4.3149071668269597e-02  -6.0499268608103514e-02  -3.9884909598402712e-02  -1.9618992116099368e-02  -4.7592282757338159e-03  1.0105300559115809e-02  4.2411977150275490e-02  6.0510058693441150e-02  5.2259545594690107e-02  2.1810623877331351e-02  -6.8833084539053815e-03  -1.9531956314487078e-02  -3.3379047473317151e-02  -5.5847336379889596e-02  -4.3903699081212090e-02  -2.4535988258244525e-02  1.0559501835063496e-02  2.1720449384937151e-02  4.1297062919249200e-02  5.7361062266393321e-02  5.2259545594690107e-02  1.7023336466718067e-02  -4.8672400555008266e-01  -8.1943231746591605e-01  -9.5060199872801798e-01  -8.6706095794319937e-01  -5.2032427907383660e-01  -2.8534978962671917e-02  4.8680084474240004e-01  8.2305918909863929e-01  9.4320856209590775e-01  8.4881446730945231e-01  5.2459797526460916e-01  1.7023336466718067e-02  -8.4631265637404134e-03  -8.2621278673820520e-01  -1.3726206300710364e+00  -1.5826902460171972e+00  -1.3965303146532606e+00  -8.0888992520678704e-01  9.1760209665651144e-03  8.1549122562851373e-01  1.3712686154022458e+00  1.5756294058997069e+00  1.4001766515688834e+00  8.3163024773195526e-01  -8.4631265637404134e-03  -2.2513091033885334e-02  -9.4504124294954150e-01  -1.5746091282643988e+00  -1.7885486421013330e+00  -1.5551126251987244e+00  -9.0920734832931360e-01  2.2958598738863412e-02  9.4782905674585649e-01  1.5835848796287459e+00  1.7900118512873673e+00  1.5415735189900819e+00  9.0678970257742153e-01  -2.2513091033885334e-02  -4.1096783219799156e-02  -8.5429160911798629e-01  -1.4004618419810051e+00  -1.5411220586992993e+00  -1.3495828888025780e+00  -8.0310029204565458e-01  3.7467299669748599e-02  8.6443823589866708e-01  1.3912523159976347e+00  1.5451202798704526e+00  1.3433255921354088e+00  7.8423747816509337e-01  -4.1096783219799156e-02  -5.4458250138348520e-02  -5.2640379879098909e-01  -8.2752515562736584e-01  -9.0866880942165740e-01  -7.8188555210318988e-01  -4.3639613581256920e-01  5.6092900292890595e-02  5.2240649505702230e-01  8.1054910796810331e-01  9.1387181026714170e-01  8.0567949886785251e-01  4.3511563529605668e-01  -5.4458250138348520e-02  -5.0649480657868229e-02  -1.7883604044086496e-02  6.5568872507810695e-03  2.4388595433083176e-02  4.0168172518144168e-02  5.5320754613011260e-02  4.8245061121286521e-02  2.4397905882143484e-02  -6.1120680536336956e-03  -2.1699067033536221e-02  -3.7668159646249547e-02  -5.4422840984932969e-02  -5.0649480657868229e-02  -2.6003104667455871e-02  4.8141643554485164e-01  8.2546774525100319e-01  9.4273326093210064e-01  8.5533177744142808e-01  5.2555812556853021e-01  2.0544430750896125e-02  -4.8729242835453479e-01  -8.1544757396707235e-01  -9.4736145265611071e-01  -8.6577697888408911e-01  -5.2442793590940695e-01  -2.6003104667455871e-02  1.1801348108994908e-02  8.1889730738180366e-01  1.3684109217098230e+00  1.5790279953580164e+00  1.4005369904605218e+00  8.3145287362776765e-01  -1.3678300460400219e-02  -8.2223193903445702e-01  -1.3698909577101435e+00  -1.5839335651947675e+00  -1.3865305177489702e+00  -8.0816784812567499e-01  1.1801348108994908e-02  1.7994062901889842e-02  9.5257304164297008e-01  1.5819961095236084e+00  1.7931638587140049e+00  1.5356376865976329e+00  9.0959452818791997e-01  -2.5761639255237147e-02  -9.4632852838433923e-01  -1.5738909709095941e+00  -1.7895096345494679e+00  -1.5537410157091556e+00  -9.0921468071699307e-01  1.7994062901889842e-02  4.0987886419497951e-02  8.6429563739998438e-01  1.3948106388138652e+00  1.5476100301402589e+00  1.3484849743592524e+00  7.8666175064362220e-01  -4.5200944505702952e-02  -8.5118296253089398e-01  -1.3969823664241534e+00  -1.5462552021494673e+00  -1.3472871058576512e+00  -8.0975708338186025e-01  4.0987886419497951e-02  5.9227307251570160e-02  5.3036010323338145e-01  8.0286232712453298e-01  9.1223753441982658e-01  8.0576648608298362e-01  4.3436212491805465e-01  -4.8038887022325012e-02  -5.2902999932195660e-01  -8.2166731341342070e-01  -9.0465604368204033e-01  -7.8510924015129901e-01  -4.3808618094810375e-01  5.9227307251570160e-02  5.2259545594690107e-02  2.1810623877331351e-02  -6.8833084539053815e-03  -1.9531956314487078e-02  -3.3379047473317151e-02  -5.5847336379889596e-02  -4.3903699081212090e-02  -2.4535988258244525e-02  1.0559501835063496e-02  2.1720449384937151e-02  4.1297062919249200e-02  5.7361062266393321e-02  5.2259545594690107e-02  2.1608389008087394e-02  2.8866001456926281e-03  -2.0212141635710307e-02  -4.0377395058097343e-02  -4.7552874266408009e-02  -4.8800850031178844e-02  -2.4942447263161898e-02  3.0980706561486164e-03  2.6210150416065565e-02  3.6612936855194338e-02  4.6132606411414770e-02  3.5570272298760600e-02  2.1608389008087394e-02  5.4639416517509466e-03  -2.9730461441010314e-01  -5.0127971970490481e-01  -5.8348506663035271e-01  -5.0324373275920320e-01  -3.0179121043798418e-01  2.0893666498148695e-03  2.9092888291545294e-01  5.0171344265533691e-01  5.8393763580623570e-01  5.1045014864438309e-01  2.9468502049004508e-01  5.4639416517509466e-03  -2.2177901363596087e-02  -5.0406396141463428e-01  -8.3949348457789241e-01  -9.5142828443654592e-01  -8.1381727805694504e-01  -4.5503825730444197e-01  1.6852460631933075e-02  5.0711642315579675e-01  8.3735847394703367e-01  9.4939047011749900e-01  8.1351176938130887e-01  4.5439825301823650e-01  -2.2177901363596087e-02  -4.0248263924677112e-02  -5.8027824348303758e-01  -9.5046474418152338e-01  -1.0608908339911824e+00  -9.0063483033942904e-01  -5.0990539779957622e-01  3.9810672395526187e-02  5.8225109967729316e-01  9.5339740860517386e-01  1.0572961037056301e+00  9.0244535481387544e-01  5.0747092923172643e-01  -4.0248263924677112e-02  -4.9871110286878573e-02  -5.0975102320650389e-01  -8.1335921021368318e-01  -9.0222096354442050e-01  -7.6648472071102014e-01  -4.1926459774612163e-01  5.1725856018888967e-02  5.0764066636470662e-01  8.1500093628407522e-01  8.9925596290204524e-01  7.6274268582288451e-01  4.2321295553220628e-01  -4.9871110286878573e-02  -4.1112249554169068e-02  -2.9531775728069393e-01  -4.5964512287467962e-01  -5.0277426981124995e-01  -4.1950446895717386e-01  -2.1138841799616104e-01  4.8112452023656924e-02  2.9822775676652596e-01  4.5444115211654212e-01  5.0862491903313567e-01  4.1980237372939178e-01  2.1496905489717724e-01  -4.1112249554169068e-02  -2.7705759492820326e-02  1.4126214577322663e-03  2.3231005033115433e-02  4.0795032428750017e-02  4.8631311466923892e-02  4.2936066026738058e-02  2.6094312670835090e-02  -9.3791359634743114e-04  -2.2661611506402224e-02  -4.0655243582256237e-02  -4.8864000216976802e-02  -4.7920028163928680e-02  -2.7705759492820326e-02  3.4954905713551561e-04  2.9032914514593644e-01  4.9948089660403033e-01  5.8505866472308654e-01  5.1234667022743263e-01  2.9731716953662840e-01  2.1648150666944209e-03  -2.9257953943860426e-01  -5.0455429463856805e-01  -5.7699731620571859e-01  -5.0592372667153296e-01  -2.9812852163232895e-01  3.4954905713551561e-04  2.1965109009785939e-02  4.9687525949681993e-01  8.3947214023907468e-01  9.4809824494732986e-01  8.1085019725739083e-01  4.5342730482388699e-01  -2.4168383672103652e-02  -5.0529996757699003e-01  -8.3735117827162220e-01  -9.4969512887667484e-01  -8.1040369292119296e-01  -4.5376817807652553e-01  2.1965109009785939e-02  4.1589831681834478e-02  5.8028043501981363e-01  9.5123136396338748e-01  1.0628167701804954e+00  9.0052240588023824e-01  5.0512805463072752e-01  -4.5764600903935686e-02  -5.8373740874077540e-01  -9.4831465207873678e-01  -1.0603219449695245e+00  -8.9878236159785441e-01  -5.1172388652878975e-01  4.1589831681834478e-02  4.7829292449106303e-02  5.0836961930705582e-01  8.1268771314417065e-01  9.0013056786157897e-01  7.7163323956395380e-01  4.1901415181478613e-01  -5.0470149165500112e-02  -5.0632272044618387e-01  -8.1269021048753920e-01  -9.0119344373901855e-01  -7.6664495831967627e-01  -4.2104981159101307e-01  4.7829292449106303e-02  5.2024938624266548e-02  2.9240206503079635e-01  4.5675708534743237e-01  5.1061441054300705e-01  4.1843530695192310e-01  2.1587733472071924e-01  -3.7458672396264020e-02  -2.9416445964170435e-01  -4.5859199256413380e-01  -5.0378403432267904e-01  -4.1930428107717366e-01  -2.1856680078322166e-01  5.2024938624266548e-02  2.1608389008087394e-02  2.8866001456926281e-03  -2.0212141635710307e-02  -4.0377395058097343e-02  -4.7552874266408009e-02  -4.8800850031178844e-02  -2.4942447263161898e-02  3.0980706561486164e-03  2.6210150416065565e-02  3.6612936855194338e-02  4.6132606411414770e-02  3.5570272298760600e-02  2.1608389008087394e-02  3.4632045219827865e-03  -2.1109351437052053e-02  -3.9342104253485381e-02  -5.0093598297981733e-02  -4.0953080890570405e-02  -2.2664910458330852e-02  -2.6566215867005112e-04  1.8497623272254210e-02  3.8581323036960630e-02  5.1652869492676980e-02  3.7159667734207223e-02  2.5663080771215752e-02  3.4632045219827865e-03  -2.2518073900905697e-02  -4.4305733453501965e-02  -5.5255552407887203e-02  -4.6733670214800051e-02  -2.6083023990098281e-02  -1.4373072667237241e-03  2.3612280327850010e-02  4.6174385771641735e-02  5.4516216421659137e-02  3.9526161347381780e-02  2.2082997333875847e-02  4.5547122887748251e-03  -2.2518073900905697e-02  -4.2203782015520698e-02  -5.2145396012801076e-02  -4.7222543885011362e-02  -2.9820848470600559e-02  -6.5303208166848426e-04  2.0612416194539594e-02  4.3185729889104123e-02  4.4854248460652314e-02  4.9551792835420307e-02  3.1401274877714457e-02  -9.9005154480217650e-04  -1.8676659444261209e-02  -4.2203782015520698e-02  -4.9292818881916826e-02  -4.3180681070625428e-02  -2.9439780763844806e-02  -2.8320551108533027e-03  2.9083731896803827e-02  4.6247244152209724e-02  4.4946280805592778e-02  4.2182666045350113e-02  2.9964832598874031e-02  9.2914639311908107e-04  -2.7350956227173675e-02  -3.9989659009657584e-02  -4.9292818881916826e-02  -3.9087394002427139e-02  -1.8866257704908292e-02  -2.2961521045089081e-03  2.8376862997794437e-02  5.4917039770917331e-02  5.1042640796671056e-02  4.3358781451968323e-02  2.4743267132578916e-02  -8.2727592085423839e-04  -2.5509102143158716e-02  -4.9097775262959199e-02  -5.2673839748244473e-02  -3.9087394002427139e-02  -2.7407367484721286e-02  -1.5328255680753283e-03  2.1840713921806709e-02  4.2756230771682509e-02  5.3943116250472517e-02  4.3630670463468559e-02  2.4488161244203336e-02  3.5666214426190715e-03  -2.4615493634332471e-02  -4.3740330763797276e-02  -5.4959484596756647e-02  -4.3753998115516467e-02  -2.7407367484721286e-02  1.0497872576906173e-03  2.6636207341400906e-02  4.0240033076936667e-02  4.8048351214649711e-02  4.2005479589519723e-02  2.2465564772761425e-02  2.7481986751938759e-03  -2.0340575026958164e-02  -4.0723860079588163e-02  -4.6936245136230660e-02  -3.8248742229542228e-02  -2.9243435246821763e-02  1.0497872576906173e-03  2.1235113954532245e-02  4.2334775437121407e-02  5.0549980636885303e-02  4.5522774431316061e-02  2.2239844409591477e-02  1.5680016069562308e-03  -1.9995370662239040e-02  -4.2892623732770647e-02  -5.1791345036201863e-02  -3.8355716255221418e-02  -2.6160377994026453e-02  3.5506297867235589e-04  2.1235113954532245e-02  3.7652350016768490e-02  5.0373583284159591e-02  4.9492474630677817e-02  2.6205038782461301e-02  -4.6225157981233103e-03  -2.2279941224968243e-02  -4.3963652916045530e-02  -5.5061640265541598e-02  -4.6540437192233587e-02  -2.9374761915110598e-02  2.0461375083635795e-03  2.4373647545962728e-02  3.7652350016768490e-02  4.2781504367104498e-02  4.3565022365653149e-02  2.8778014011876827e-02  -1.1097782202811222e-03  -2.8946928498846516e-02  -4.7548076128365389e-02  -4.7145674035418146e-02  -4.2945532930020180e-02  -2.6486353479140089e-02  2.1244103957057089e-04  3.3147217545069781e-02  4.3397370635560310e-02  4.2781504367104498e-02  4.3155823393239347e-02  2.8272008726570683e-02  1.9493567219011361e-03  -2.6938794371560073e-02  -4.8822650988017323e-02  -5.3474004578535794e-02  -4.7092477679515528e-02  -1.8544482526796954e-02  -1.0746433060744387e-03  2.8058788970628551e-02  4.6549740624963087e-02  4.9656654332082634e-02  4.3155823393239347e-02  2.4139174055583967e-02  -1.7446556223913072e-03  -2.2967348913572608e-02  -4.1035176614801529e-02  -5.0968614013564041e-02  -4.4249633463173600e-02  -2.2431916644488750e-02  3.0406167005102687e-04  2.4950459768010656e-02  3.6639127817743901e-02  5.3503450588568278e-02  4.1679310755061136e-02  2.4139174055583967e-02  3.4632045219827865e-03  -2.1109351437052053e-02  -3.9342104253485381e-02  -5.0093598297981733e-02  -4.0953080890570405e-02  -2.2664910458330852e-02  -2.6566215867005112e-04  1.8497623272254210e-02  3.8581323036960630e-02  5.1652869492676980e-02  3.7159667734207223e-02  2.5663080771215752e-02  3.4632045219827865e-03  -2.5571190223145166e-02  -4.5301121346172382e-02  -5.2530635223024334e-02  -4.0729041449785494e-02  -2.6088565964390156e-02  4.6168005325148597e-04  2.0892482269092291e-02  4.5683496430868317e-02  5.0432366998077585e-02  4.4363210684739945e-02  2.2218488723724301e-02  5.1534263786682660e-03  -2.5571190223145166e-02  -4.1055430309584008e-02  2.1481612070575626e-01  4.2207057948865745e-01  5.0856822178439998e-01  4.5691178081015971e-01  2.9418302787939771e-01  5.1157031625634744e-02  -2.1811326321027999e-01  -4.2441565176275564e-01  -5.1097726912053520e-01  -4.5723989276275784e-01  -2.9499004332229545e-01  -4.1055430309584008e-02  -4.6732006208364554e-02  4.1859222391883016e-01  7.6916826705746300e-01  9.0131288087655037e-01  8.1346821087686993e-01  5.0860024004602455e-01  4.6734675078297427e-02  -4.2385853579855115e-01  -7.6632495078179674e-01  -9.0092239666801299e-01  -8.1090471816781373e-01  -5.0825494758566736e-01  -4.6732006208364554e-02  -4.1247099831208417e-02  5.0464854415436367e-01  8.9898386353291049e-01  1.0647545547712065e+00  9.5156140667095312e-01  5.7819041861494191e-01  3.3936636717320695e-02  -5.1122370115305460e-01  -8.9709463022873459e-01  -1.0597310521583785e+00  -9.4803433362094836e-01  -5.7886722816728142e-01  -4.1247099831208417e-02  -1.8314557302698983e-02  4.5522572708240600e-01  8.1549811733548827e-01  9.5354402408320538e-01  8.3410901073631893e-01  4.9730175254467102e-01  2.2057795365330195e-02  -4.5672713507960250e-01  -8.1473826770148350e-01  -9.5293350891976603e-01  -8.3659394477584048e-01  -5.0243438653493777e-01  -1.8314557302698983e-02  -5.3484367127736281e-04  2.9568308790359243e-01  5.0780861591090320e-01  5.7846072587888830e-01  5.0083874881459489e-01  2.9122011218823468e-01  4.2913348277156616e-03  -2.9746570520755033e-01  -5.1180242853681190e-01  -5.8189347264157953e-01  -5.0051268202730526e-01  -2.9617980330871191e-01  -5.3484367127736281e-04  2.5286145629084635e-02  4.5396314951491601e-02  4.6228728831529696e-02  4.0430995050674816e-02  2.6044526663645064e-02  1.9999473954879776e-03  -2.1602581969293183e-02  -4.4150997177040116e-02  -4.3533896642992655e-02  -3.0209078215408958e-02  -1.8261481207207046e-02  -3.3228515366620103e-03  2.5286145629084635e-02  4.9809468036881646e-02  -2.1675291557415652e-01  -4.2440441828473907e-01  -5.0389341931379183e-01  -4.5978436075467699e-01  -2.9665038879532879e-01  -4.2409728732024150e-02  2.1809073880806004e-01  4.2607460250232998e-01  5.0967764065846666e-01  4.5577661355842103e-01  2.8981044740768919e-01  4.9809468036881646e-02  4.6213386547253286e-02  -4.2032892246195952e-01  -7.6568453894045796e-01  -9.0041883863421279e-01  -8.1456501842770168e-01  -5.0842907716765140e-01  -5.1730239478607110e-02  4.2877682893556990e-01  7.6732775741955461e-01  9.0604418688425259e-01  8.1132797635897136e-01  5.0935865781858225e-01  4.6213386547253286e-02  3.3892461792846822e-02  -5.0704609987946203e-01  -9.0511947280966909e-01  -1.0599857107747706e+00  -9.5161555812018195e-01  -5.8391810522708898e-01  -4.0792563478234761e-02  5.0761667141958866e-01  9.0151317180340362e-01  1.0649699802081163e+00  9.5885488563634325e-01  5.8205191416872337e-01  3.3892461792846822e-02  1.6830527233384695e-02  -4.5839460678876631e-01  -8.1022889272305310e-01  -9.4918144906389579e-01  -8.3940343535431083e-01  -5.0534080057015696e-01  -2.4595240028268506