<?xml version="1.0"?>
<VTKFile type="UnstructuredGrid"  version="0.1"  >
<UnstructuredGrid>
<Piece  NumberOfPoints="9261" NumberOfCells="48000">
<Points>
<DataArray  type="Float64"  NumberOfComponents="3"  format="ascii">-3.141592653589793 -3.141592653589793 -3.141592653589793  -2.827433388230814 -3.141592653589793 -3.141592653589793  -2.513274122871834 -3.141592653589793 -3.141592653589793  -2.199114857512855 -3.141592653589793 -3.141592653589793  -1.884955592153876 -3.141592653589793 -3.141592653589793  -1.570796326794897 -3.141592653589793 -3.141592653589793  -1.256637061435917 -3.141592653589793 -3.141592653589793  -0.9424777960769379 -3.141592653589793 -3.141592653589793  -0.6283185307179586 -3.141592653589793 -3.141592653589793  -0.3141592653589793 -3.141592653589793 -3.141592653589793  0 -3.141592653589793 -3.141592653589793  0.3141592653589789 -3.141592653589793 -3.141592653589793  0.6283185307179586 -3.141592653589793 -3.141592653589793  0.9424777960769379 -3.141592653589793 -3.141592653589793  1.256637061435917 -3.141592653589793 -3.141592653589793  1.570796326794897 -3.141592653589793 -3.141592653589793  1.884955592153876 -3.141592653589793 -3.141592653589793  2.199114857512855 -3.141592653589793 -3.141592653589793  2.513274122871834 -3.141592653589793 -3.141592653589793  2.827433388230814 -3.141592653589793 -3.141592653589793  3.141592653589793 -3.141592653589793 -3.141592653589793  -3.141592653589793 -2.827433388230814 -3.141592653589793  -2.827433388230814 -2.827433388230814 -3.141592653589793  -2.513274122871834 -2.827433388230814 -3.141592653589793  -2.199114857512855 -2.827433388230814 -3.141592653589793  -1.884955592153876 -2.827433388230814 -3.141592653589793  -1.570796326794897 -2.827433388230814 -3.141592653589793  -1.256637061435917 -2.827433388230814 -3.141592653589793  -0.9424777960769379 -2.827433388230814 -3.141592653589793  -0.6283185307179586 -2.827433388230814 -3.141592653589793  -0.3141592653589793 -2.827433388230814 -3.141592653589793  0 -2.827433388230814 -3.141592653589793  0.3141592653589789 -2.827433388230814 -3.141592653589793  0.6283185307179586 -2.827433388230814 -3.141592653589793  0.9424777960769379 -2.827433388230814 -3.141592653589793  1.256637061435917 -2.827433388230814 -3.141592653589793  1.570796326794897 -2.827433388230814 -3.141592653589793  1.884955592153876 -2.827433388230814 -3.141592653589793  2.199114857512855 -2.827433388230814 -3.141592653589793  2.513274122871834 -2.827433388230814 -3.141592653589793  2.827433388230814 -2.827433388230814 -3.141592653589793  3.141592653589793 -2.827433388230814 -3.141592653589793  -3.141592653589793 -2.513274122871834 -3.141592653589793  -2.827433388230814 -2.513274122871834 -3.141592653589793  -2.513274122871834 -2.513274122871834 -3.141592653589793  -2.199114857512855 -2.513274122871834 -3.141592653589793  -1.884955592153876 -2.513274122871834 -3.141592653589793  -1.570796326794897 -2.513274122871834 -3.141592653589793  -1.256637061435917 -2.513274122871834 -3.141592653589793  -0.9424777960769379 -2.513274122871834 -3.141592653589793  -0.6283185307179586 -2.513274122871834 -3.141592653589793  -0.3141592653589793 -2.513274122871834 -3.141592653589793  0 -2.513274122871834 -3.141592653589793  0.3141592653589789 -2.513274122871834 -3.141592653589793  0.6283185307179586 -2.513274122871834 -3.141592653589793  0.9424777960769379 -2.513274122871834 -3.141592653589793  1.256637061435917 -2.513274122871834 -3.141592653589793  1.570796326794897 -2.513274122871834 -3.141592653589793  1.884955592153876 -2.513274122871834 -3.141592653589793  2.199114857512855 -2.513274122871834 -3.141592653589793  2.513274122871834 -2.513274122871834 -3.141592653589793  2.827433388230814 -2.513274122871834 -3.141592653589793  3.141592653589793 -2.513274122871834 -3.141592653589793  -3.141592653589793 -2.199114857512855 -3.141592653589793  -2.827433388230814 -2.199114857512855 -3.141592653589793  -2.513274122871834 -2.199114857512855 -3.141592653589793  -2.199114857512855 -2.199114857512855 -3.141592653589793  -1.884955592153876 -2.199114857512855 -3.141592653589793  -1.570796326794897 -2.199114857512855 -3.141592653589793  -1.256637061435917 -2.199114857512855 -3.141592653589793  -0.9424777960769379 -2.199114857512855 -3.141592653589793  -0.6283185307179586 -2.199114857512855 -3.141592653589793  -0.3141592653589793 -2.199114857512855 -3.141592653589793  0 -2.199114857512855 -3.141592653589793  0.3141592653589789 -2.199114857512855 -3.141592653589793  0.6283185307179586 -2.199114857512855 -3.141592653589793  0.9424777960769379 -2.199114857512855 -3.141592653589793  1.256637061435917 -2.199114857512855 -3.141592653589793  1.570796326794897 -2.199114857512855 -3.141592653589793  1.884955592153876 -2.199114857512855 -3.141592653589793  2.199114857512855 -2.199114857512855 -3.141592653589793  2.513274122871834 -2.199114857512855 -3.141592653589793  2.827433388230814 -2.199114857512855 -3.141592653589793  3.141592653589793 -2.199114857512855 -3.141592653589793  -3.141592653589793 -1.884955592153876 -3.141592653589793  -2.827433388230814 -1.884955592153876 -3.141592653589793  -2.513274122871834 -1.884955592153876 -3.141592653589793  -2.199114857512855 -1.884955592153876 -3.141592653589793  -1.884955592153876 -1.884955592153876 -3.141592653589793  -1.570796326794897 -1.884955592153876 -3.141592653589793  -1.256637061435917 -1.884955592153876 -3.141592653589793  -0.9424777960769379 -1.884955592153876 -3.141592653589793  -0.6283185307179586 -1.884955592153876 -3.141592653589793  -0.3141592653589793 -1.884955592153876 -3.141592653589793  0 -1.884955592153876 -3.141592653589793  0.3141592653589789 -1.884955592153876 -3.141592653589793  0.6283185307179586 -1.884955592153876 -3.141592653589793  0.9424777960769379 -1.884955592153876 -3.141592653589793  1.256637061435917 -1.884955592153876 -3.141592653589793  1.570796326794897 -1.884955592153876 -3.141592653589793  1.884955592153876 -1.884955592153876 -3.141592653589793  2.199114857512855 -1.884955592153876 -3.141592653589793  2.513274122871834 -1.884955592153876 -3.141592653589793  2.827433388230814 -1.884955592153876 -3.141592653589793  3.141592653589793 -1.884955592153876 -3.141592653589793  -3.141592653589793 -1.570796326794897 -3.141592653589793  -2.827433388230814 -1.570796326794897 -3.141592653589793  -2.513274122871834 -1.570796326794897 -3.141592653589793  -2.199114857512855 -1.570796326794897 -3.141592653589793  -1.884955592153876 -1.570796326794897 -3.141592653589793  -1.570796326794897 -1.570796326794897 -3.141592653589793  -1.256637061435917 -1.570796326794897 -3.141592653589793  -0.9424777960769379 -1.570796326794897 -3.141592653589793  -0.6283185307179586 -1.570796326794897 -3.141592653589793  -0.3141592653589793 -1.570796326794897 -3.141592653589793  0 -1.570796326794897 -3.141592653589793  0.3141592653589789 -1.570796326794897 -3.141592653589793  0.6283185307179586 -1.570796326794897 -3.141592653589793  0.9424777960769379 -1.570796326794897 -3.141592653589793  1.256637061435917 -1.570796326794897 -3.141592653589793  1.570796326794897 -1.570796326794897 -3.141592653589793  1.884955592153876 -1.570796326794897 -3.141592653589793  2.199114857512855 -1.570796326794897 -3.141592653589793  2.513274122871834 -1.570796326794897 -3.141592653589793  2.827433388230814 -1.570796326794897 -3.141592653589793  3.141592653589793 -1.570796326794897 -3.141592653589793  -3.141592653589793 -1.256637061435917 -3.141592653589793  -2.827433388230814 -1.256637061435917 -3.141592653589793  -2.513274122871834 -1.256637061435917 -3.141592653589793  -2.199114857512855 -1.256637061435917 -3.141592653589793  -1.884955592153876 -1.256637061435917 -3.141592653589793  -1.570796326794897 -1.256637061435917 -3.141592653589793  -1.256637061435917 -1.256637061435917 -3.141592653589793  -0.9424777960769379 -1.256637061435917 -3.141592653589793  -0.6283185307179586 -1.256637061435917 -3.141592653589793  -0.3141592653589793 -1.256637061435917 -3.141592653589793  0 -1.256637061435917 -3.141592653589793  0.3141592653589789 -1.256637061435917 -3.141592653589793  0.6283185307179586 -1.256637061435917 -3.141592653589793  0.9424777960769379 -1.256637061435917 -3.141592653589793  1.256637061435917 -1.256637061435917 -3.141592653589793  1.570796326794897 -1.256637061435917 -3.141592653589793  1.884955592153876 -1.256637061435917 -3.141592653589793  2.199114857512855 -1.256637061435917 -3.141592653589793  2.513274122871834 -1.256637061435917 -3.141592653589793  2.827433388230814 -1.256637061435917 -3.141592653589793  3.141592653589793 -1.256637061435917 -3.141592653589793  -3.141592653589793 -0.9424777960769379 -3.141592653589793  -2.827433388230814 -0.9424777960769379 -3.141592653589793  -2.513274122871834 -0.9424777960769379 -3.141592653589793  -2.199114857512855 -0.9424777960769379 -3.141592653589793  -1.884955592153876 -0.9424777960769379 -3.141592653589793  -1.570796326794897 -0.9424777960769379 -3.141592653589793  -1.256637061435917 -0.9424777960769379 -3.141592653589793  -0.9424777960769379 -0.9424777960769379 -3.141592653589793  -0.6283185307179586 -0.9424777960769379 -3.141592653589793  -0.3141592653589793 -0.9424777960769379 -3.141592653589793  0 -0.9424777960769379 -3.141592653589793  0.3141592653589789 -0.9424777960769379 -3.141592653589793  0.6283185307179586 -0.9424777960769379 -3.141592653589793  0.9424777960769379 -0.9424777960769379 -3.141592653589793  1.256637061435917 -0.9424777960769379 -3.141592653589793  1.570796326794897 -0.9424777960769379 -3.141592653589793  1.884955592153876 -0.9424777960769379 -3.141592653589793  2.199114857512855 -0.9424777960769379 -3.141592653589793  2.513274122871834 -0.9424777960769379 -3.141592653589793  2.827433388230814 -0.9424777960769379 -3.141592653589793  3.141592653589793 -0.9424777960769379 -3.141592653589793  -3.141592653589793 -0.6283185307179586 -3.141592653589793  -2.827433388230814 -0.6283185307179586 -3.141592653589793  -2.513274122871834 -0.6283185307179586 -3.141592653589793  -2.19
[...]
<PointData  Scalars="f_5512"> 
<DataArray  type="Float64"  Name="f_5512"  format="ascii">1.4761206119049618e-02  5.9772460946033383e-02  -1.2917225481000004e-03  7.2138204837754920e-03  -1.5546310338027764e-02  -2.3625803181710772e-02  -6.5943723210639647e-03  2.7669932932401359e-03  -1.1047741585610237e-02  -2.3066962046883733e-02  -1.4954137483271611e-02  -2.3201595382879612e-02  -1.1144608243065601e-02  2.6311124690120737e-03  -6.7367843124113685e-03  -2.3704768735954524e-02  -1.5557422933472473e-02  7.2862398127705513e-03  -1.2459123649811461e-03  5.9744525087254530e-02  1.4761206119049618e-02  2.2968110333813737e-02  -4.7838144541471866e-01  -7.4931513350477841e-01  -1.0675269426554166e+00  -1.2656081056060431e+00  -1.3095909881470742e+00  -1.2397835798891166e+00  -1.1228316579427187e+00  -8.3645148646319900e-01  -5.5185898095129837e-01  -5.9814447645658235e-02  4.7822843050464836e-01  8.1536056929360112e-01  1.0773600885359682e+00  1.2297846617615773e+00  1.3206597672972424e+00  1.2898574122408413e+00  1.1204890033262738e+00  7.6089093567885357e-01  5.5175013567691344e-01  2.2968110333813737e-02  1.1082771754944157e-02  -8.1542449480470114e-01  -9.5274013907729327e-01  -1.0323069320732845e+00  -9.7316358049328999e-01  -8.9903150320225622e-01  -9.0077279705461732e-01  -8.8644683629233922e-01  -8.8119243902739375e-01  -7.6094377639668309e-01  1.2319346323007268e-03  7.4922739577640018e-01  9.5276332193866564e-01  9.4071798737147971e-01  9.0722488912570731e-01  8.9657512779720672e-01  9.2387782923900319e-01  9.8656963387301178e-01  8.8122177530607382e-01  8.3637639726099788e-01  1.1082771754944157e-02  -2.6223025185845893e-03  -1.0773814533597861e+00  -9.4071860482169034e-01  -8.9897233344369620e-01  -8.1299080593485007e-01  -8.0870350636751642e-01  -8.0909501211880086e-01  -9.1136291622867449e-01  -9.8656873406606238e-01  -1.1205220240427711e+00  -7.2658960988132319e-03  1.0675109644823009e+00  1.0323290115523760e+00  8.9899721317090286e-01  8.2813779600621995e-01  8.1401968310468420e-01  8.4599677048928812e-01  9.1135563736502834e-01  8.8641345239746683e-01  1.1228312583147952e+00  -2.6223025185845893e-03  6.7625727883540354e-03  -1.2297987427393000e+00  -9.0722366606723814e-01  -8.2816337611030422e-01  -7.4086216495838730e-01  -6.9686819826362045e-01  -7.3825042983369993e-01  -8.4597414464539034e-01  -9.2386885261382168e-01  -1.2898864556473497e+00  1.5620963891760308e-02  1.2655987232809729e+00  9.7318359830072754e-01  8.1302982395170209e-01  7.4087647548548130e-01  7.0729433744993431e-01  7.3827868663536544e-01  8.0904315372244628e-01  9.0067487055859419e-01  1.2397519405487747e+00  6.7625727883540354e-03  2.3744707537574759e-02  -1.3206603525020504e+00  -8.9659169201229061e-01  -8.1397819076248479e-01  -7.0725648831818022e-01  -6.8678218824661574e-01  -7.0723755108209629e-01  -8.1396045881008905e-01  -8.9654311894952132e-01  -1.3206814488892626e+00  2.3803106728516106e-02  1.3095523782532470e+00  8.9899412442415694e-01  8.0874261845487505e-01  6.9694654533456757e-01  6.8688034453889979e-01  6.9690747671012865e-01  8.0871472391249111e-01  8.9894616580470299e-01  1.3095439071371711e+00  2.3744707537574759e-02  1.5589949848176944e-02  -1.2898628497538236e+00  -9.2390146843081655e-01  -8.4594554035792302e-01  -7.3826552119050859e-01  -6.9685477860880107e-01  -7.4085329018017843e-01  -8.2812815530828376e-01  -9.0718422272291865e-01  -1.2298110873858787e+00  6.8213221852844348e-03  1.2396932662000206e+00  9.0074900946922776e-01  8.0912057824255601e-01  7.3829668243525282e-01  7.0732078055982228e-01  7.4093330676806679e-01  8.1306386269516950e-01  9.7313602069318406e-01  1.2655322637492938e+00  1.5589949848176944e-02  -7.2539495751024934e-03  -1.1204603478598476e+00  -9.8660945297727809e-01  -9.1129995906088224e-01  -8.0907597383165786e-01  -8.0868752269056554e-01  -8.1300056338468429e-01  -8.9896576739513279e-01  -9.4068716023525389e-01  -1.0773917920211875e+00  -2.5707412952345157e-03  1.1227932978564441e+00  8.8641491914453741e-01  9.1131755022242567e-01  8.4600899544289554e-01  8.1404625869700187e-01  8.2819975379336064e-01  8.9903320772962880e-01  1.0322488567053496e+00  1.0674543520877986e+00  -7.2539495751024934e-03  1.2598881421523099e-03  -7.6086632680963240e-01  -8.8119889083239156e-01  -8.8645456513007048e-01  -9.0072786469771271e-01  -8.9904068377367130e-01  -9.7322743575705228e-01  -1.0323225990352995e+00  -9.5276063665677790e-01  -8.1538600138211914e-01  1.1163458473140375e-02  8.3640369916830448e-01  8.8116517809387263e-01  9.8651803798608917e-01  9.2388355290386193e-01  8.9658900642054218e-01  9.0722129063532952e-01  9.4071380346888345e-01  9.5270655878786292e-01  7.4918531115201048e-01  1.2598881421523099e-03  -5.9746941594131221e-02  -5.5176713570934544e-01  -8.3631348381569914e-01  -1.1228147692817096e+00  -1.2397530164329509e+00  -1.3095916697975838e+00  -1.2656054248348647e+00  -1.0675252848215757e+00  -7.4925321024512581e-01  -4.7826354520440312e-01  2.3002375508012204e-02  5.5177166928457622e-01  7.6098626403528269e-01  1.1205975164982864e+00  1.2899732552046115e+00  1.3207231590622239e+00  1.2298458969334642e+00  1.0773553163364549e+00  8.1532022030672235e-01  4.7824728386122228e-01  -5.9746941594131221e-02  -1.4696543825514222e-02  -2.2973630428669772e-02  -1.1111086066500509e-02  2.6341900824052886e-03  -6.7590498656742073e-03  -2.3706393947155069e-02  -1.5545837439092479e-02  7.3057840344900133e-03  -1.2126935753508773e-03  5.9756704166507038e-02  1.4677392494476204e-02  5.9645784968090407e-02  -1.3207812223209924e-03  7.2149357802196896e-03  -1.5633828673705379e-02  -2.3820153146119051e-02  -6.9171446230600290e-03  2.4421782138798046e-03  -1.1262828738287425e-02  -2.3087280033249426e-02  -1.4696543825514222e-02  -5.9693942743660189e-02  4.7827682530031013e-01  8.1531574705473486e-01  1.0773324852303885e+00  1.2297624256407822e+00  1.3206548696611824e+00  1.2898929645748320e+00  1.1205378008865419e+00  7.6094974995343234e-01  5.5181008627050709e-01  2.2918581886591113e-02  -4.7829955386408185e-01  -7.4920778412648337e-01  -1.0674615027856400e+00  -1.2655351292903108e+00  -1.3094933058800893e+00  -1.2396954343075017e+00  -1.1227798534683058e+00  -8.3646317809708970e-01  -5.5180483898474009e-01  -5.9693942743660189e-02  1.2468200272990530e-03  7.4926971594850056e-01  9.5274175596848121e-01  9.4067706366819126e-01  9.0720361746414302e-01  8.9656448367884622e-01  9.2387801019385651e-01  9.8654977321179882e-01  8.8112393404192324e-01  8.3639467253296507e-01  1.0991941874094722e-02  -8.1537146626396850e-01  -9.5269763823793563e-01  -1.0322549941826671e+00  -9.7314434806351047e-01  -8.9904831823974973e-01  -9.0073820589429776e-01  -8.8644230962951331e-01  -8.8118666396867729e-01  -7.6103698604055992e-01  1.2468200272990530e-03  -7.2850166881391126e-03  1.0675443220858845e+00  1.0322991908449153e+00  8.9895356348857236e-01  8.2817069745732430e-01  8.1402508869325774e-01  8.4601541341726827e-01  9.1136133511904305e-01  8.8638891812038756e-01  1.1227394090250808e+00  -2.7171993003051384e-03  -1.0773665057531796e+00  -9.4067932286105438e-01  -8.9896895532676291e-01  -8.1300471469148383e-01  -8.0865165117177618e-01  -8.0908467969759568e-01  -9.1132683971372674e-01  -9.8655740847666251e-01  -1.1206334159519074e+00  -7.2850166881391126e-03  1.5540426047078290e-02  1.2655792893715956e+00  9.7318312672619067e-01  8.1300260899149390e-01  7.4093883152751838e-01  7.0731178366166658e-01  7.3833258515455424e-01  8.0910617067468693e-01  9.0071530776948261e-01  1.2396434297795269e+00  6.7103143576623409e-03  -1.2297992646717109e+00  -9.0719060467168566e-01  -8.2815662775924603e-01  -7.4081782835468946e-01  -6.9682746227434023e-01  -7.3826255913426886e-01  -8.4592047404216242e-01  -9.2383103051981230e-01  -1.2899351838806064e+00  1.5540426047078290e-02  2.3678810218155301e-02  1.3095432504863624e+00  8.9902278204770991e-01  8.0874806661183052e-01  6.9697706756312483e-01  6.8687358505581675e-01  6.9686789589558384e-01  8.0871317548264265e-01  8.9903380038004710e-01  1.3094650547562501e+00  2.3704945466396881e-02  -1.3206657122572782e+00  -8.9655834680528956e-01  -8.1399841467174283e-01  -7.0729499746786140e-01  -6.8678247552423421e-01  -7.0728402566498816e-01  -8.1397066325201795e-01  -8.9651776069025968e-01  -1.3206937733967872e+00  2.3678810218155301e-02  6.6989673061354088e-03  1.2396885420901167e+00  9.0075082432365650e-01  8.0914190307138745e-01  7.3837429427480328e-01  7.0736423760261924e-01  7.4091548781878969e-01  8.1298050977948244e-01  9.7326482503783673e-01  1.2654928633034499e+00  1.5584290581883074e-02  -1.2899158784487432e+00  -9.2386211386856520e-01  -8.4602855621537398e-01  -7.3831711002981371e-01  -6.9692480761656783e-01  -7.4086831422900601e-01  -8.2817765622307160e-01  -9.0722473570704043e-01  -1.2298020192092103e+00  6.6989673061354088e-03  -2.6659914822547673e-03  1.1227051365343317e+00  8.8647751133269348e-01  9.1136075998625055e-01  8.4603508749333578e-01  8.1403501919497645e-01  8.2817982835592885e-01  8.9900274055298379e-01  1.0324210338569042e+00  1.0674675141462557e+00  -7.2756873269958760e-03  -1.1205749075615516e+00  -9.8651752734090403e-01  -9.1142070955479249e-01  -8.0917839601541064e-01  -8.0878244236818464e-01  -8.1307418425125666e-01  -8.9902285712573327e-01  -9.4071372500470218e-01  -1.0773446970020146e+00  -2.6659914822547673e-03  1.1137058319255110e-02  8.3635731174590699e-01  8.8113082263775766e-01  9.8656604161337247e-01  9.2389966480054220e-01  8.9658562147852128e-01  9.0725768692025166e-01  9.4078711703300089e-01  9.5287803038381369e-01  7.4921366882815421e-01  1.2383016656101098e-03  -7.6101582144759072e-01  -8.8111002576774911e-01  -8.8644832800995887e-01  -9.0077572770522207e-01  -8.9905735292191280e-01  -9.7321251702133726e-01  -1.0323076756920568e+00  -9.5274751212187303e-01  -8.1535360631858866e-01  1.1137058319255110e-02  2.3075759241131727e-02  5.5184815473309268e-01  7.6103917346417016e-01  1.1206393614207739e+00  1.2899843628030430e+00  1.3207792725811416e+00  1.2299105686629390e+00  1.0774590631065628e+00  8.1540679430000951e-01  4.7823342679426428e-01  -5.9751084559689187e-02  -5.5180404716678333e-01  -8.3641269518761729e-01  -1.1227507109552159e+00  -1.2397293594321608e+00  -1.3095785210348998e+00  -1.2655991132734101e+00  -1.0675229944730966e+00  -7.4922851242355981e-01  -4.7819813704428310e-01  2.3075759241131727e-02  1.4761206119049618e-02  5.9772460946033383e-02  -1.2917225481000004e-03  7.2138204837754920e-03  -1.5546310338027764e-02  -2.3625803181710772e-02  -6.5943723210639647e-03  2.7669932932401359e-03  -1.1047741585610237e-02  -2.3066962046883733e-02  -1.4954137483271611e-02  -2.3201595382879612e-02  -1.1144608243065601e-02  2.6311124690120737e-03  -6.7367843124113685e-03  -2.3704768735954524e-02  -1.5557422933472473e-02  7.2862398127705513e-03  -1.2459123649811461e-03  5.9744525087254530e-02  1.4761206119049618e-02  1.5398612946509849e-02  4.7922038121504085e-02  -1.8128299955505290e-02  -8.7450532461241428e-03  -1.6575629179167873e-02  -1.8234884189268111e-02  -6.0930040103023293e-03  -3.5605127120422197e-04  -1.7934655389323099e-02  -2.3470263522457405e-02  -1.5377421643198915e-02  -1.0072357806867329e-02  -9.0943828392789413e-03  -2.5948526785690624e-03  -1.0356138445087320e-02  -2.3395563612379270e-02  -8.8307927541759253e-03  1.5445198708389533e-02  2.7288307846349688e-03  6.6009451466997993e-02  1.5398612946509849e-02  9.6753839644588852e-03  -4.5311316670854429e-01  -6.5711348005524650e-01  -9.5658503708052744e-01  -1.1731060439969851e+00  -1.2429384710211240e+00  -1.1899875705574492e+00  -1.0721613530183942e+00  -7.9413312105807099e-01  -5.0635063750080922e-01  -4.7977378421072144e-02  4.5303265424104272e-01  7.5713014000041834e-01  1.0272966191119641e+00  1.1836054725217733e+00  1.2733577680509653e+00  1.2166501670737115e+00  1.0047013243128382e+00  6.5080828049678652e-01  5.1729206027195895e-01  9.6753839644588852e-03  8.9142066738872854e-03  -7.5719733222761088e-01  -8.5533277337070590e-01  -9.5819441860976451e-01  -9.4133051967644810e-01  -8.9234728805075469e-01  -8.7750866085533286e-01  -8.3821354115647928e-01  -8.0939961570600283e-01  -6.4772020393713536e-01  1.8066125102299300e-02  6.5702878184919911e-01  8.5530784412849159e-01  8.7737917867355697e-01  8.8175545240958764e-01  9.0075873451542876e-01  9.2166637442496924e-01  9.2035512901286687e-01  7.7896876351190636e-01  7.8376025631785118e-01  8.9142066738872854e-03  2.5156984592016821e-03  -1.0273426875294789e+00  -8.7740662112185064e-01  -8.8782584589248870e-01  -8.7392418701888819e-01  -8.8204318944503468e-01  -8.7640809510518669e-01  -9.1971663780473456e-01  -9.5545368581568391e-01  -9.8339464055636860e-01  8.7039491369952839e-03  9.5654561603229171e-01  9.5817282892973521e-01  8.8782168933473082e-01  8.7637716651240727e-01  8.8815032609536082e-01  9.0222084485650977e-01  9.0570747509364635e-01  8.5169858955899513e-01  1.0712858629198991e+00  2.5156984592016821e-03  1.0367333014843586e-02  -1.1836440920784665e+00  -8.8179559633800697e-01  -8.7636498444184308e-01  -8.4980926697526571e-01  -8.4035071456041577e-01  -8.6499679997955137e-01  -8.9620023494385859e-01  -9.3700754849428092e-01  -1.1899179277944054e+00  1.6662177601554189e-02  1.1730977306141790e+00  9.4127566029874410e-01  8.7397118056491740e-01  8.4983878964541393e-01  8.4812695418990092e-01  8.5239468828477272e-01  8.7150092111594268e-01  9.0926787467092041e-01  1.1845385013710374e+00  1.0367333014843586e-02  2.3462307262264833e-02  -1.2733993521206814e+00  -9.0075301461006230e-01  -8.8810842283865465e-01  -8.4810614284492047e-01  -8.5619704030175603e-01  -8.5703772726913119e-01  -8.8421744192372820e-01  -9.1698411100907107e-01  -1.2601167146080405e+00  1.8426547400763941e-02  1.2428983947185690e+00  8.9232193358232770e-01  8.8208018649581976e-01  8.4040772220367133e-01  8.5628850073848117e-01  8.5861669947574837e-01  8.9422893209848875e-01  9.5323497451245853e-01  1.2275027097828863e+00  2.3462307262264833e-02  8.9510572012572263e-03  -1.2167001932415775e+00  -9.2166794036524402e-01  -9.0219480419948872e-01  -8.5244313642781200e-01  -8.5859429212925376e-01  -8.7313319171429538e-01  -8.9037534707962240e-01  -8.9599792197177885e-01  -1.1849414532958635e+00  6.3483220472000173e-03  1.1899488503182278e+00  8.7749228984171546e-01  8.7638182583457946e-01  8.6505742367670624e-01  8.5710874686883054e-01  8.7321735877681350e-01  8.9618252618129668e-01  1.0067076905958445e+00  1.1425942082019933e+00  8.9510572012572263e-03  -1.5310118881570130e-02  -1.0047173828662979e+00  -9.2033705360897189e-01  -9.0572037911762227e-01  -8.7156091940881930e-01  -8.9423144399847976e-01  -8.9612179520065538e-01  -9.1672049785177179e-01  -8.8464689192181278e-01  -1.0278138074863306e+00  6.0017341262739597e-04  1.0721310258323988e+00  8.3819888533191911e-01  9.1968051157451280e-01  8.9620605984292023e-01  8.8425851669612210e-01  8.9047187722329046e-01  9.1680160301843383e-01  9.8888540782012968e-01  9.1986959323518558e-01  -1.5310118881570130e-02  -2.6283633585609065e-03  -6.5081803091891000e-01  -7.7891547118954885e-01  -8.5175896806439355e-01  -9.0931735879247166e-01  -9.5332641400023477e-01  -1.0067818866664502e+00  -9.8894656538510350e-01  -8.5181568004032004e-01  -7.6547905238381153e-01  1.8044267953590706e-02  7.9412079113152467e-01  8.0940820660394319e-01  9.5543644797309280e-01  9.3699930299988743e-01  9.1700108728893615e-01  8.9603148856012671e-01  8.8467571056745253e-01  8.5175217938815129e-01  6.3229399699644528e-01  -2.6283633585609065e-03  -6.5882383782657247e-02  -5.1721045050008185e-01  -7.8372752918200128e-01  -1.0712008192110714e+00  -1.1845149829159174e+00  -1.2275297310654001e+00  -1.1426499560650736e+00  -9.1990643808799399e-01  -6.3231893938181838e-01  -4.2959941068701946e-01  2.3456795295721051e-02  5.0626460339461343e-01  6.4774624771961664e-01  9.8343353970662362e-01  1.1899577286056338e+00  1.2601586606844439e+00  1.1849468520139701e+00  1.0277806960614666e+00  7.6540593011446556e-01  4.2957497160569613e-01  -6.5882383782657247e-02  -1.5319964684697762e-02  -9.8068176469200945e-03  -8.9721125213168898e-03  -2.5552937954087343e-03  -1.0366582095200479e-02  -2.3445456242196187e-02  -8.9271405439059429e-03  1.5313493738921461e-02  2.5820003700998328e-03  6.5859552317040437e-02  1.5198427488392958e-02  4.7822326129503295e-02  -1.8209496513970150e-02  -8.8323631014782487e-03  -1.6690624868502375e-02  -1.8440972136898832e-02  -6.3855647673720451e-03  -7.2979666770076241e-04  -1.8175598716036648e-02  -2.3471890878748670e-02  -1.5319964684697762e-02  -4.7856429589889060e-02  4.5302016264677442e-01  7.5713331787238713e-01  1.0272962693490832e+00  1.1835994335261542e+00  1.2733819769574060e+00  1.2167168407050697e+00  1.0048269306319089e+00  6.5096096217709298e-01  5.1737390323153676e-01  9.7968272569040546e-03  -4.5311420045816980e-01  -6.5704303187996804e-01  -9.5651012905787092e-01  -1.1730425461509222e+00  -1.2428487604140117e+00  -1.1899219873926530e+00  -1.0720860738259774e+00  -7.9414863153166504e-01  -5.0630993591352580e-01  -4.7856429589889060e-02  1.8179515424456845e-02  6.5705950104017741e-01  8.5532362229608450e-01  8.7734631444342381e-01  8.8174603668136453e-01  9.0076405509910318e-01  9.2168388472653928e-01  9.2032266093374493e-01  7.7888972707588910e-01  7.8387061521774359e-01  8.9170482161983530e-03  -7.5718507042939254e-01  -8.5532761933007118e-01  -9.5818208528962245e-01  -9.4132572690334693e-01  -8.9233835290421581e-01  -8.7749147384650295e-01  -8.3823250003756267e-01  -8.0939130594582531e-01  -6.4778034744495394e-01  1.8179515424456845e-02  8.7799811401523698e-03  9.5659873020879915e-01  9.5814912147562437e-01  8.8774109544664193e-01  8.7633483262944267e-01  8.8812782339768237e-01  9.0227109126926286e-01  9.0575404434849660e-01  8.5173484698775059e-01  1.0712256991530351e+00  2.5297303554488457e-03  -1.0273478413467594e+00  -8.7738001947602751e-01  -8.8782644803171618e-01  -8.7394817812675274e-01  -8.8207072360204697e-01  -8.7645350539923328e-01  -9.1970153404080579e-01  -9.5545529583155020e-01  -9.8349257649795907e-01  8.7799811401523698e-03  1.6633318500664046e-02  1.1731248843109241e+00  9.4126358340592708e-01  8.7392295453015501e-01  8.4977819149643852e-01  8.4813301133515950e-01  8.5238494685097921e-01  8.7150351823641159e-01  9.0930393479987182e-01  1.1844903590036413e+00  1.0357483645904464e-02  -1.1836384032066507e+00  -8.8176751736262993e-01  -8.7638074895900631e-01  -8.4979633116934072e-01  -8.4034281388644005e-01  -8.6499989228824692e-01  -8.9614868973057193e-01  -9.3698451254565218e-01  -1.1899638420780443e+00  1.6633318500664046e-02  1.8350225485526454e-02  1.2429127181926658e+00  8.9229931314587874e-01  8.8206636836440411e-01  8.4043083471498958e-01  8.5622610893276618e-01  8.5866482921205167e-01  8.9415570288773882e-01  9.5336526270375321e-01  1.2274235289222013e+00  2.3456241064821186e-02  -1.2733925088993141e+00  -9.0071173743357158e-01  -8.8818191379552691e-01  -8.4808045790186548e-01  -8.5618543059807717e-01  -8.5698299788114063e-01  -8.8414868663720703e-01  -9.1695059298752568e-01  -1.2601226900879603e+00  1.8350225485526454e-02  6.2657212449186359e-03  1.1899476804345461e+00  8.7748386639907006e-01  8.7646300946852695e-01  8.6507394475824084e-01  8.5714494737565272e-01  8.7318135770921768e-01  8.9617701781620640e-01  1.0068443707973020e+00  1.1425615733849508e+00  8.9261073383155500e-03  -1.2167021314873707e+00  -9.2162914930874729e-01  -9.0228651244206015e-01  -8.5243009546121418e-01  -8.5859582680067659e-01  -8.7312076529444194e-01  -8.9036807345393454e-01  -8.9598699641431112e-01  -1.1849546288842319e+00  6.2657212449186359e-03  5.4277104555120598e-04  1.0720583227155394e+00  8.3819284865702171e-01  9.1970882792879127e-01  8.9625899277195298e-01  8.8431492948718582e-01  8.9048713719924810e-01  9.1681702257716480e-01  9.8904209685604727e-01  9.1988022920388512e-01  -1.5369731481366009e-02  -1.0047721524983062e+00  -9.2022549651750685e-01  -9.0584383812379887e-01  -8.7160752538965991e-01 