<?xml version="1.0"?>
<VTKFile type="UnstructuredGrid"  version="0.1"  >
<UnstructuredGrid>
<Piece  NumberOfPoints="9261" NumberOfCells="48000">
<Points>
<DataArray  type="Float64"  NumberOfComponents="3"  format="ascii">-3.141592653589793 -3.141592653589793 -3.141592653589793  -2.827433388230814 -3.141592653589793 -3.141592653589793  -2.513274122871834 -3.141592653589793 -3.141592653589793  -2.199114857512855 -3.141592653589793 -3.141592653589793  -1.884955592153876 -3.141592653589793 -3.141592653589793  -1.570796326794897 -3.141592653589793 -3.141592653589793  -1.256637061435917 -3.141592653589793 -3.141592653589793  -0.9424777960769379 -3.141592653589793 -3.141592653589793  -0.6283185307179586 -3.141592653589793 -3.141592653589793  -0.3141592653589793 -3.141592653589793 -3.141592653589793  0 -3.141592653589793 -3.141592653589793  0.3141592653589789 -3.141592653589793 -3.141592653589793  0.6283185307179586 -3.141592653589793 -3.141592653589793  0.9424777960769379 -3.141592653589793 -3.141592653589793  1.256637061435917 -3.141592653589793 -3.141592653589793  1.570796326794897 -3.141592653589793 -3.141592653589793  1.884955592153876 -3.141592653589793 -3.141592653589793  2.199114857512855 -3.141592653589793 -3.141592653589793  2.513274122871834 -3.141592653589793 -3.141592653589793  2.827433388230814 -3.141592653589793 -3.141592653589793  3.141592653589793 -3.141592653589793 -3.141592653589793  -3.141592653589793 -2.827433388230814 -3.141592653589793  -2.827433388230814 -2.827433388230814 -3.141592653589793  -2.513274122871834 -2.827433388230814 -3.141592653589793  -2.199114857512855 -2.827433388230814 -3.141592653589793  -1.884955592153876 -2.827433388230814 -3.141592653589793  -1.570796326794897 -2.827433388230814 -3.141592653589793  -1.256637061435917 -2.827433388230814 -3.141592653589793  -0.9424777960769379 -2.827433388230814 -3.141592653589793  -0.6283185307179586 -2.827433388230814 -3.141592653589793  -0.3141592653589793 -2.827433388230814 -3.141592653589793  0 -2.827433388230814 -3.141592653589793  0.3141592653589789 -2.827433388230814 -3.141592653589793  0.6283185307179586 -2.827433388230814 -3.141592653589793  0.9424777960769379 -2.827433388230814 -3.141592653589793  1.256637061435917 -2.827433388230814 -3.141592653589793  1.570796326794897 -2.827433388230814 -3.141592653589793  1.884955592153876 -2.827433388230814 -3.141592653589793  2.199114857512855 -2.827433388230814 -3.141592653589793  2.513274122871834 -2.827433388230814 -3.141592653589793  2.827433388230814 -2.827433388230814 -3.141592653589793  3.141592653589793 -2.827433388230814 -3.141592653589793  -3.141592653589793 -2.513274122871834 -3.141592653589793  -2.827433388230814 -2.513274122871834 -3.141592653589793  -2.513274122871834 -2.513274122871834 -3.141592653589793  -2.199114857512855 -2.513274122871834 -3.141592653589793  -1.884955592153876 -2.513274122871834 -3.141592653589793  -1.570796326794897 -2.513274122871834 -3.141592653589793  -1.256637061435917 -2.513274122871834 -3.141592653589793  -0.9424777960769379 -2.513274122871834 -3.141592653589793  -0.6283185307179586 -2.513274122871834 -3.141592653589793  -0.3141592653589793 -2.513274122871834 -3.141592653589793  0 -2.513274122871834 -3.141592653589793  0.3141592653589789 -2.513274122871834 -3.141592653589793  0.6283185307179586 -2.513274122871834 -3.141592653589793  0.9424777960769379 -2.513274122871834 -3.141592653589793  1.256637061435917 -2.513274122871834 -3.141592653589793  1.570796326794897 -2.513274122871834 -3.141592653589793  1.884955592153876 -2.513274122871834 -3.141592653589793  2.199114857512855 -2.513274122871834 -3.141592653589793  2.513274122871834 -2.513274122871834 -3.141592653589793  2.827433388230814 -2.513274122871834 -3.141592653589793  3.141592653589793 -2.513274122871834 -3.141592653589793  -3.141592653589793 -2.199114857512855 -3.141592653589793  -2.827433388230814 -2.199114857512855 -3.141592653589793  -2.513274122871834 -2.199114857512855 -3.141592653589793  -2.199114857512855 -2.199114857512855 -3.141592653589793  -1.884955592153876 -2.199114857512855 -3.141592653589793  -1.570796326794897 -2.199114857512855 -3.141592653589793  -1.256637061435917 -2.199114857512855 -3.141592653589793  -0.9424777960769379 -2.199114857512855 -3.141592653589793  -0.6283185307179586 -2.199114857512855 -3.141592653589793  -0.3141592653589793 -2.199114857512855 -3.141592653589793  0 -2.199114857512855 -3.141592653589793  0.3141592653589789 -2.199114857512855 -3.141592653589793  0.6283185307179586 -2.199114857512855 -3.141592653589793  0.9424777960769379 -2.199114857512855 -3.141592653589793  1.256637061435917 -2.199114857512855 -3.141592653589793  1.570796326794897 -2.199114857512855 -3.141592653589793  1.884955592153876 -2.199114857512855 -3.141592653589793  2.199114857512855 -2.199114857512855 -3.141592653589793  2.513274122871834 -2.199114857512855 -3.141592653589793  2.827433388230814 -2.199114857512855 -3.141592653589793  3.141592653589793 -2.199114857512855 -3.141592653589793  -3.141592653589793 -1.884955592153876 -3.141592653589793  -2.827433388230814 -1.884955592153876 -3.141592653589793  -2.513274122871834 -1.884955592153876 -3.141592653589793  -2.199114857512855 -1.884955592153876 -3.141592653589793  -1.884955592153876 -1.884955592153876 -3.141592653589793  -1.570796326794897 -1.884955592153876 -3.141592653589793  -1.256637061435917 -1.884955592153876 -3.141592653589793  -0.9424777960769379 -1.884955592153876 -3.141592653589793  -0.6283185307179586 -1.884955592153876 -3.141592653589793  -0.3141592653589793 -1.884955592153876 -3.141592653589793  0 -1.884955592153876 -3.141592653589793  0.3141592653589789 -1.884955592153876 -3.141592653589793  0.6283185307179586 -1.884955592153876 -3.141592653589793  0.9424777960769379 -1.884955592153876 -3.141592653589793  1.256637061435917 -1.884955592153876 -3.141592653589793  1.570796326794897 -1.884955592153876 -3.141592653589793  1.884955592153876 -1.884955592153876 -3.141592653589793  2.199114857512855 -1.884955592153876 -3.141592653589793  2.513274122871834 -1.884955592153876 -3.141592653589793  2.827433388230814 -1.884955592153876 -3.141592653589793  3.141592653589793 -1.884955592153876 -3.141592653589793  -3.141592653589793 -1.570796326794897 -3.141592653589793  -2.827433388230814 -1.570796326794897 -3.141592653589793  -2.513274122871834 -1.570796326794897 -3.141592653589793  -2.199114857512855 -1.570796326794897 -3.141592653589793  -1.884955592153876 -1.570796326794897 -3.141592653589793  -1.570796326794897 -1.570796326794897 -3.141592653589793  -1.256637061435917 -1.570796326794897 -3.141592653589793  -0.9424777960769379 -1.570796326794897 -3.141592653589793  -0.6283185307179586 -1.570796326794897 -3.141592653589793  -0.3141592653589793 -1.570796326794897 -3.141592653589793  0 -1.570796326794897 -3.141592653589793  0.3141592653589789 -1.570796326794897 -3.141592653589793  0.6283185307179586 -1.570796326794897 -3.141592653589793  0.9424777960769379 -1.570796326794897 -3.141592653589793  1.256637061435917 -1.570796326794897 -3.141592653589793  1.570796326794897 -1.570796326794897 -3.141592653589793  1.884955592153876 -1.570796326794897 -3.141592653589793  2.199114857512855 -1.570796326794897 -3.141592653589793  2.513274122871834 -1.570796326794897 -3.141592653589793  2.827433388230814 -1.570796326794897 -3.141592653589793  3.141592653589793 -1.570796326794897 -3.141592653589793  -3.141592653589793 -1.256637061435917 -3.141592653589793  -2.827433388230814 -1.256637061435917 -3.141592653589793  -2.513274122871834 -1.256637061435917 -3.141592653589793  -2.199114857512855 -1.256637061435917 -3.141592653589793  -1.884955592153876 -1.256637061435917 -3.141592653589793  -1.570796326794897 -1.256637061435917 -3.141592653589793  -1.256637061435917 -1.256637061435917 -3.141592653589793  -0.9424777960769379 -1.256637061435917 -3.141592653589793  -0.6283185307179586 -1.256637061435917 -3.141592653589793  -0.3141592653589793 -1.256637061435917 -3.141592653589793  0 -1.256637061435917 -3.141592653589793  0.3141592653589789 -1.256637061435917 -3.141592653589793  0.6283185307179586 -1.256637061435917 -3.141592653589793  0.9424777960769379 -1.256637061435917 -3.141592653589793  1.256637061435917 -1.256637061435917 -3.141592653589793  1.570796326794897 -1.256637061435917 -3.141592653589793  1.884955592153876 -1.256637061435917 -3.141592653589793  2.199114857512855 -1.256637061435917 -3.141592653589793  2.513274122871834 -1.256637061435917 -3.141592653589793  2.827433388230814 -1.256637061435917 -3.141592653589793  3.141592653589793 -1.256637061435917 -3.141592653589793  -3.141592653589793 -0.9424777960769379 -3.141592653589793  -2.827433388230814 -0.9424777960769379 -3.141592653589793  -2.513274122871834 -0.9424777960769379 -3.141592653589793  -2.199114857512855 -0.9424777960769379 -3.141592653589793  -1.884955592153876 -0.9424777960769379 -3.141592653589793  -1.570796326794897 -0.9424777960769379 -3.141592653589793  -1.256637061435917 -0.9424777960769379 -3.141592653589793  -0.9424777960769379 -0.9424777960769379 -3.141592653589793  -0.6283185307179586 -0.9424777960769379 -3.141592653589793  -0.3141592653589793 -0.9424777960769379 -3.141592653589793  0 -0.9424777960769379 -3.141592653589793  0.3141592653589789 -0.9424777960769379 -3.141592653589793  0.6283185307179586 -0.9424777960769379 -3.141592653589793  0.9424777960769379 -0.9424777960769379 -3.141592653589793  1.256637061435917 -0.9424777960769379 -3.141592653589793  1.570796326794897 -0.9424777960769379 -3.141592653589793  1.884955592153876 -0.9424777960769379 -3.141592653589793  2.199114857512855 -0.9424777960769379 -3.141592653589793  2.513274122871834 -0.9424777960769379 -3.141592653589793  2.827433388230814 -0.9424777960769379 -3.141592653589793  3.141592653589793 -0.9424777960769379 -3.141592653589793  -3.141592653589793 -0.6283185307179586 -3.141592653589793  -2.827433388230814 -0.6283185307179586 -3.141592653589793  -2.513274122871834 -0.6283185307179586 -3.141592653589793  -2.19
[...]
<PointData  Scalars="f_25336"> 
<DataArray  type="Float64"  Name="f_25336"  format="ascii">4.1296640982126646e-02  1.3182175929100745e-01  6.8886939092760724e-02  9.9985881753236514e-02  -7.4983054360593840e-02  -1.4217231262308885e-01  -1.0053698902801947e-01  -5.2525206680144924e-02  -9.9339702169031954e-03  -2.0323874184225474e-02  -4.1657903968911801e-02  -2.1485895639481008e-02  -1.1285037992702814e-02  -5.4019968480682384e-02  -1.0193910889182978e-01  -1.4343759986570470e-01  -7.5963416468279366e-02  9.9216420607746200e-02  6.8370260099152425e-02  1.3182258842614633e-01  4.1296640982126646e-02  2.0705968634699281e-02  -6.5097663010315487e-01  -6.2773244880454870e-01  -7.8073414144767539e-01  -1.0484509240029334e+00  -1.0333529047696934e+00  -9.0775994451856268e-01  -8.0534675682598511e-01  -7.2813680976454009e-01  -7.6682927912237664e-01  -1.3143037611690978e-01  6.5057516730338039e-01  7.6717059323489289e-01  9.1333466538570063e-01  1.0344191631404267e+00  1.1329505796520143e+00  1.0076504902750980e+00  7.7746111648554161e-01  5.4134033947393123e-01  7.6698586613270570e-01  2.0705968634699281e-02  1.0989123214346879e-02  -7.6759229058537537e-01  -1.9516542847180032e-01  -6.2014128382652238e-02  -3.7767902786614287e-02  -4.4566731616371355e-02  -2.9720513324046245e-02  -7.1847326282821658e-02  -4.0218174693209131e-02  -5.4203812340469859e-01  -6.7866611156363221e-02  6.2724015952490020e-01  1.9498392810425899e-01  1.2210834636354329e-01  6.0373209018747216e-02  5.1505811089758158e-02  9.1174411691821646e-04  8.0565388302165555e-03  3.9513577309525760e-02  7.2772242023822642e-01  1.0989123214346879e-02  5.4431505216020602e-02  -9.1393392898895232e-01  -1.2235275563810111e-01  -1.0182579916368113e-01  -1.0568198014873541e-01  -1.2444407454148665e-01  -1.0709624105082724e-01  -1.3300539113313681e-01  -8.3436000450008846e-03  -7.7827656665322209e-01  -9.7891679229330286e-02  7.7977420210983395e-01  6.1671711236574209e-02  1.0182691974172811e-01  1.0787874877489628e-01  1.1681202751590720e-01  1.1368231400915420e-01  1.3311446467967650e-01  7.1314734621724316e-02  8.0470539996840162e-01  5.4431505216020602e-02  1.0316162724785469e-01  -1.0350253474440241e+00  -6.0599565177928603e-02  -1.0780065427777026e-01  -8.6429186624500651e-02  -9.3854360604237255e-02  -8.7436816857314720e-02  -1.1346018656748316e-01  -1.3285405024108219e-03  -1.0085284790223354e+00  7.8047282225512576e-02  1.0471995690505638e+00  3.7384329364862634e-02  1.0581355008372242e-01  8.6454534106524872e-02  7.7576256316617576e-02  8.7611554593325133e-02  1.0712717038696530e-01  2.9183738455476629e-02  9.0679301310281990e-01  1.0316162724785469e-01  1.4532629280260148e-01  -1.1333451488567619e+00  -5.1906127698910128e-02  -1.1659244148972511e-01  -7.7519616769197525e-02  -7.8141309594114181e-02  -7.7407888175546696e-02  -1.1657852000945020e-01  -5.1974617267053089e-02  -1.1335570349657256e+00  1.4545325297457379e-01  1.0321786863250735e+00  4.4218734261061758e-02  1.2450922310193790e-01  9.3906185919755358e-02  7.8158785087220725e-02  9.3890006111609678e-02  1.2444820783156896e-01  4.4118201363843021e-02  1.0320640319337653e+00  1.4532629280260148e-01  7.7741919211780294e-02  -1.0077649218153157e+00  -1.1712973430255320e-03  -1.1351823695526113e-01  -8.7688360471304044e-02  -9.3943781848305430e-02  -8.6426128503060098e-02  -1.0773131791509505e-01  -6.0779659353479322e-02  -1.0347770920231072e+00  1.0354786390339130e-01  9.0681413468847982e-01  2.9423514117830629e-02  1.0728525264692509e-01  8.7689424706561284e-02  7.7583589220265217e-02  8.6512035355587880e-02  1.0582612905717920e-01  3.7392440828242321e-02  1.0467286496410906e+00  7.7741919211780294e-02  -9.8288333242205150e-02  -7.7744314437333462e-01  -8.1554107204554593e-03  -1.3289700809197505e-01  -1.0702401429922556e-01  -1.2423739273176326e-01  -1.0551561704612691e-01  -1.0155407778786060e-01  -1.2247366820896656e-01  -9.1363698322984155e-01  5.5096044176588914e-02  8.0455018277486978e-01  7.1366333698593659e-02  1.3302199764770445e-01  1.1359734441081269e-01  1.1678061236820995e-01  1.0790150436581999e-01  1.0182229358996728e-01  6.1753616747558734e-02  7.7933629471417609e-01  -9.8288333242205150e-02  -6.8102121000811255e-02  -5.4166395275613322e-01  -4.0299830113688817e-02  -7.1864830080215589e-02  -2.9734783054774686e-02  -4.4571401707347101e-02  -3.7694964803531031e-02  -6.1902909376230317e-02  -1.9547076878332012e-01  -7.6727101874733927e-01  1.1801351676240584e-02  7.2759536483298715e-01  3.9910158913059310e-02  8.3360764663169048e-03  1.1952862675830679e-03  5.1774719384969060e-02  6.0514402714507858e-02  1.2229419176436186e-01  1.9525922961548939e-01  6.2719893918417313e-01  -6.8102121000811255e-02  -1.3173886138042065e-01  -7.6677960233884512e-01  -7.2799108747798136e-01  -8.0522961018977635e-01  -9.0773578742452421e-01  -1.0333661758289621e+00  -1.0480790662567043e+00  -7.8015876897020131e-01  -6.2749752897446609e-01  -6.5050482213233940e-01  2.1238875404217199e-02  7.6648794413888022e-01  5.4175750773188280e-01  7.7795120673917828e-01  1.0080724961089238e+00  1.1332202393918829e+00  1.0345319082827222e+00  9.1340804360696737e-01  7.6717484573215766e-01  6.5044911406118922e-01  -1.3173886138042065e-01  -4.1939272129895747e-02  -2.0145849051836362e-02  -9.7377303863481427e-03  -5.2544306328459710e-02  -1.0077968380722524e-01  -1.4253622010363112e-01  -7.5356072475274288e-02  9.9446115411741198e-02  6.8343672543280762e-02  1.3148804795389329e-01  4.1014161453123879e-02  1.3069792783692530e-01  6.7535029138431263e-02  9.8316211447093113e-02  -7.6750659105364924e-02  -1.4398165175518249e-01  -1.0227300428645082e-01  -5.4292187566786401e-02  -1.1577931860034366e-02  -2.1957153626143085e-02  -4.1939272129895747e-02  -1.3296387265953061e-01  6.5045995282041957e-01  7.6700565864857884e-01  9.1328110473248336e-01  1.0343671216244297e+00  1.1327728783613786e+00  1.0074572728015616e+00  7.7734420893381662e-01  5.4142593728236210e-01  7.6635312545601830e-01  2.0531093871632121e-02  -6.5100791184778395e-01  -6.2721211662529097e-01  -7.7959285684323842e-01  -1.0473369902257701e+00  -1.0328295274975881e+00  -9.0747437268551601e-01  -8.0517208682841879e-01  -7.2787188271236924e-01  -7.6720963115045693e-01  -1.3296387265953061e-01  -6.9841134817022962e-02  6.2749600401906358e-01  1.9505899238456947e-01  1.2189688767055681e-01  6.0244741899827786e-02  5.1506772381884398e-02  1.1031576807663177e-03  8.2923087049030335e-03  4.0014734562655432e-02  7.2752498745021554e-01  1.1043746607385694e-02  -7.6739571775919435e-01  -1.9476235664524444e-01  -6.1593600881896117e-02  -3.7280560425793460e-02  -4.4170882502223306e-02  -2.9351837531758906e-02  -7.1545317950378537e-02  -3.9472781024210472e-02  -5.4098563481436435e-01  -6.9841134817022962e-02  -1.0062011532424327e-01  7.8054181311893722e-01  6.2066477952984804e-02  1.0178232663590667e-01  1.0797377562422429e-01  1.1684337718895202e-01  1.1368248375631979e-01  1.3299346171468884e-01  7.1487282866637775e-02  8.0444809257285144e-01  5.4267048965853798e-02  -9.1379523005087415e-01  -1.2208981190248376e-01  -1.0167357722267478e-01  -1.0556196123048024e-01  -1.2420924601043686e-01  -1.0700862983574509e-01  -1.3312137729002274e-01  -7.8800562803705738e-03  -7.7709034139049371e-01  -1.0062011532424327e-01  7.5331115574710755e-02  1.0481119091739537e+00  3.7685863842878371e-02  1.0566470746847101e-01  8.6580273301673560e-02  7.7577698430698838e-02  8.7762310711224423e-02  1.0725984507302715e-01  2.9496357851075471e-02  9.0686661751817288e-01  1.0256039534586059e-01  -1.0348056383326063e+00  -6.0311228053007072e-02  -1.0772932259337742e-01  -8.6323623811816547e-02  -9.3773660741769918e-02  -8.7564623586601054e-02  -1.1368047440953098e-01  -5.4762677171762628e-04  -1.0074046154962293e+00  7.5331115574710755e-02  1.4357586213750587e-01  1.0329297692349453e+00  4.4299671809373789e-02  1.2448011032477052e-01  9.3960275010966404e-02  7.8210452021865939e-02  9.4035553540382844e-02  1.2449010274055629e-01  4.4594403741072569e-02  1.0325983164434300e+00  1.4389865009053029e-01  -1.1327745352542877e+00  -5.1333163003378993e-02  -1.1667675481410363e-01  -7.7448021255799263e-02  -7.8055847946404702e-02  -7.7507311930108957e-02  -1.1672866791602175e-01  -5.1159248051420976e-02  -1.1329359400771768e+00  1.4357586213750587e-01  1.0235860649136139e-01  9.0716537438295697e-01  2.9397800810372687e-02  1.0720798736728031e-01  8.7655173613523638e-02  7.7584485825395885e-02  8.6657261059824450e-02  1.0577510873184227e-01  3.8054276891784498e-02  1.0478108920033762e+00  7.5536225220344227e-02  -1.0070153446790704e+00  -7.2571785524975607e-04  -1.1369060966703042e-01  -8.7526202703492026e-02  -9.3794999929573575e-02  -8.6422019016732174e-02  -1.0780770332609599e-01  -6.0086744814553540e-02  -1.0346358359349150e+00  1.0235860649136139e-01  5.4315574427508791e-02  8.0476893499060220e-01  7.1360921760307908e-02  1.3303251312573106e-01  1.1354462918839177e-01  1.1675637144342961e-01  1.0808609271693896e-01  1.0201602881822210e-01  6.2330022301074643e-02  7.8023521242054206e-01  -1.0060497209053537e-01  -7.7674115286144674e-01  -8.1383486969779806e-03  -1.3316296650224632e-01  -1.0705494664039143e-01  -1.2431506295006084e-01  -1.0567620497553043e-01  -1.0170528831336430e-01  -1.2200001651595535e-01  -9.1368256415650817e-01  5.4315574427508791e-02  1.1304669672273449e-02  7.2774141915697022e-01  3.9671782697830095e-02  8.3222835943699714e-03  1.0892440469907041e-03  5.1606644820952952e-02  6.0516037208717441e-02  1.2225005635258564e-01  1.9528811236193178e-01  6.2721633940218180e-01  -6.9858193124631901e-02  -5.4090298332394782e-01  -3.9798184607591554e-02  -7.1735116866582530e-02  -2.9545508262795988e-02  -4.4315720121405881e-02  -3.7411989491264903e-02  -6.1708555094478645e-02  -1.9500163022319905e-01  -7.6742742024769517e-01  1.1304669672273449e-02  2.1030268924370942e-02  7.6683579328711549e-01  5.4144940425894861e-01  7.7773989939756827e-01  1.0077118650558556e+00  1.1328010783067992e+00  1.0341281780677676e+00  9.1302870796672031e-01  7.6685412227239869e-01  6.5023925678592109e-01  -1.3288950155099752e-01  -7.6709083722796623e-01  -7.2793224849877380e-01  -8.0517994923106606e-01  -9.0759417732533876e-01  -1.0330693577097672e+00  -1.0477264679526788e+00  -7.7993693486158555e-01  -6.2740812366964471e-01  -6.5081792485804302e-01  2.1030268924370942e-02  4.1296640982126646e-02  1.3182175929100745e-01  6.8886939092760724e-02  9.9985881753236514e-02  -7.4983054360593840e-02  -1.4217231262308885e-01  -1.0053698902801947e-01  -5.2525206680144924e-02  -9.9339702169031954e-03  -2.0323874184225474e-02  -4.1657903968911801e-02  -2.1485895639481008e-02  -1.1285037992702814e-02  -5.4019968480682384e-02  -1.0193910889182978e-01  -1.4343759986570470e-01  -7.5963416468279366e-02  9.9216420607746200e-02  6.8370260099152425e-02  1.3182258842614633e-01  4.1296640982126646e-02  7.3601910375302717e-03  9.0361828103911537e-02  6.6149147377891085e-02  1.6429753386526094e-01  6.2974734282292347e-02  -1.0405541715471725e-01  -1.9909416870695035e-01  -2.0440341001790155e-01  -1.8057968274847230e-01  -8.7757168418533274e-02  -7.6636262188117931e-03  6.7418732110799795e-02  1.4983534558440964e-01  1.2903896314503419e-01  1.1438897712038430e-02  -2.0595401910785502e-01  -2.4763913482638036e-01  -5.6473719045514036e-02  3.6358922560819217e-03  1.5874621632612129e-01  7.3601910375302717e-03  -6.8458932598163574e-02  -4.5551809917522013e-01  -3.9405559558985925e-01  -6.8493173238893357e-01  -1.0542390061631199e+00  -1.0254211581994082e+00  -8.6107755907680228e-01  -6.7803112554765665e-01  -6.6922405706013366e-01  -6.3382055253222225e-01  -9.0069890831802349e-02  4.5539289530885962e-01  5.6240202237759562e-01  6.9213639000126703e-01  8.5715865453637563e-01  1.0641909875514357e+00  9.9042988942970955e-01  7.5535988183434832e-01  3.9702456850118434e-01  7.1291470201420182e-01  -6.8458932598163574e-02  -1.5049626054102744e-01  -5.6269458363158342e-01  -1.2035173106261343e-01  -1.3520437930014872e-01  -1.2450105197259782e-01  -1.1156682965389617e-01  -1.3603032827460995e-01  -7.7808800979552284e-02  -1.1152843570243716e-01  -4.3950126542467771e-01  -6.5383898542825822e-02  3.9370839058617979e-01  1.1998586936242567e-01  3.4665413048664252e-02  7.2761489798484125e-02  1.3819514343431022e-01  8.3608298069934514e-02  -4.9559617971283998e-02  -1.4060191783565312e-01  7.2164199233287885e-01  -1.5049626054102744e-01  -1.2905601086583854e-01  -6.9284060347588505e-01  -3.4886812501528863e-02  -5.0966061804698343e-02  -1.5492940382673753e-01  -2.9429621892600527e-01  -2.5932283044639526e-01  -1.5651113907273964e-01  -1.0885439417801085e-01  -7.0480074286362504e-01  -1.6261568369666304e-01  6.8449548787945036e-01  1.3456401068564430e-01  5.0830049163238827e-02  2.4828620715602917e-01  2.2484321281609015e-01  9.7431039592626556e-02  9.4255657217749284e-02  -3.2831234247876193e-02  8.1698018615342760e-01  -1.2905601086583854e-01  -1.0649942776462537e-02  -8.5809216411036804e-01  -7.2935204449263324e-02  -2.4805922557866272e-01  -2.7115228368077698e-01  -2.9929572217203920e-01  -2.6370324160127773e-01  -1.7570314909465046e-01  1.7124492570297029e-03  -9.6572168366843525e-01  -6.0322518653315102e-02  1.0537765119304030e+00  1.2361893914992761e-01  1.5480743123847623e-01  2.7132382807007416e-01  3.2086648264635176e-01  3.7495115904627074e-01  2.7674024550627857e-01  -8.2573410445449733e-03  8.5459841819667759e-01  -1.0649942776462537e-02  2.0730750395871317e-01  -1.0647861422781573e+00  -1.3857316248866458e-01  -2.2447834076908182e-01  -3.2059580946304317e-01  -4.0956585876318274e-01  -4.0360353141638344e-01  -2.4905669107609024e-01  4.6025738530995966e-02  -1.1556228706785121e+00  1.0720584599878477e-01  1.0247987652648207e+00  1.1098768569512807e-01  2.9441035033496560e-01  2.9951132793805457e-01  4.0941893448538280e-01  4.8480640621833282e-01  2.3257031120339830e-01  4.9156656363831985e-02  9.3057893866300667e-01  2.0730750395871317e-01  2.4892670916803328e-01  -9.9034278123733521e-01  -8.4171517310750524e-02  -9.6841921743231238e-02  -3.7477430778516568e-01  -4.8494894156306828e-01  -3.3507323075392548e-01  -2.0359697766901855e-01  2.1451331881598007e-02  -1.1487373495596145e+00  2.0206234400099490e-01  8.6008565185152730e-01  1.3566457865320189e-01  2.5943160311952662e-01  2.6377270999305402e-01  4.0320134468694963e-01  3.3509882194762136e-01  7.0197131967763463e-02  8.6367887212793384e-02  9.2616740109443840e-01  2.4892670916803328e-01  5.7082881360875831e-02  -7.5519454233283079e-01  4.9240230391303458e-02  -9.3743500191530160e-02  -2.7633118251183597e-01  -2.3228837163927826e-01  -6.9882162020817234e-02  -4.6104555947622257e-02  -9.1267710480505623e-03  -9.8340326638468833e-01  2.0705012384105356e-01  6.7697414748554763e-01  7.7402849876021806e-02  1.5649452221663895e-01  1.7551352017773800e-01  2.4890509345222178e-01  2.0401090743640352e-01  4.6509223258276361e-02  1.2104877877149495e-01  7.1074893806644590e-01  5.7082881360875831e-02  -3.5600933450844361e-03  -3.9713508562283095e-01  1.4018206240725767e-01  3.2911090230448678e-02  8.4796731249387487e-03  -4.9260155646815497e-02  -8.6532094722238828e-02  -1.2105909172232755e-01  -1.9134558450151820e-01  -7.7063152628144682e-01  1.8285865544830182e-01  6.6875312935833253e-01  1.1151463968975976e-01  1.0912371583271575e-01  -1.6214045820152590e-03  -4.6065167945477138e-02  -2.1420353751103606e-02  9.1744013836909267e-03  1.9126486805867293e-01  5.5519834819537928e-01  -3.5600933450844361e-03  -1.5886410423326539e-01  -7.1309424131779076e-01  -7.2212301976330340e-01  -8.1771192479157195e-01  -8.5548039085727667e-01  -9.3167021812783590e-01  -9.2713791405301127e-01  -7.1125007244238814e-01  -5.5535078860786324e-01  -5.6932087633646344e-01  8.8848237442581871e-02  6.3346482211897848e-01  4.3923380905287907e-01  7.0436717536810911e-01  9.6512961428217781e-01  1.1550433911421176e+00  1.1484006481052726e+00  9.8343636528454914e-01  7.7082975863454029e-01  5.6947411368266487e-01  -1.5886410423326539e-01  -8.1018370679518722e-03  6.8594685846228590e-02  1.5133709787116628e-01  1.3055697671272218e-01  1.2594979323578890e-02  -2.0518320176719901e-01  -2.4715972528784647e-01  -5.6266002426299415e-02  3.6337354119895956e-03  1.5846898892829575e-01  6.9484254920782881e-03  8.9389305989821324e-02  6.5055427497508936e-02  1.6281086289121635e-01  6.1374336068549633e-02  -1.0564213619962864e-01  -2.0063581432706046e-01  -2.0611580091504453e-01  -1.8244473431395691e-01  -8.9539723468795351e-02  -8.1018370679518722e-03  -9.1091014812965859e-02  4.5521904440928945e-01  5.6223282539813380e-01  6.9210597436039678e-01  8.5722848138099061e-01  1.0642222576593272e+00  9.9026190008293224e-01  7.5520982980474405e-01  3.9713526788368309e-01  7.1253319581923946e-01  -6.8870002406189915e-02  -4.5572293743990555e-01  -3.9375270941888629e-01  -6.8416503762676184e-01  -1.0537289464039874e+00  -1.0252708778687891e+00  -8.6082558916096685e-01  -6.7777183909555938e-01  -6.6887986265386856e-01  -6.3427643655534671e-01  -9.1091014812965859e-02  -6.6632965810099282e-02  3.9401319287811870e-01  1.2030366078447531e-01  3.4717199408535959e-02  7.2670823242572818e-02  1.3828681920482394e-01  8.3959770604187203e-02  -4.9066196960569235e-02  -1.4000699140921838e-01  7.2177426366236208e-01  -1.5070057934810019e-01  -5.6260016444477012e-01  -1.2000389639997740e-01  -1.3454195244564734e-01  -1.2369737714515718e-01  -1.1105481060463371e-01  -1.3578654325045977e-01  -7.7627075624889880e-02  -1.1068586144586429e-01  -4.3895134748669318e-01  -6.6632965810099282e-02  -1.6474814589177694e-01  6.8499846072502169e-01  1.3501420997567215e-01  5.0760055063073690e-02  2.4797471438413868e-01  2.2452462742873611e-01  9.7273288005819775e-02  9.3991828710446299e-02  -3.2906458411709805e-02  8.1715746862678607e-01  -1.2937826637848279e-01  -6.9274228090310563e-01  -3.4875925154481131e-02  -5.0751133527457672e-02  -1.5445778243543656e-01  -2.9444085122587188e-01  -2.5955715467608464e-01  -1.5691065084514125e-01  -1.0821464134760342e-01  -7.0402718728845270e-01  -1.6474814589177694e-01  -6.2701743392772888e-02  1.0545628521243731e+00  1.2401485483806403e-01  1.5465344475826756e-01  2.7098809401087509e-01  3.2057877504556520e-01  3.7465539618859850e-01  2.7646913355408559e-01  -8.3520014394280438e-03  8.5489420886029044e-01  -1.1162686324561180e-02  -8.5786958154667758e-01  -7.2655306563077379e-02  -2.4792033702305966e-01  -2.7104383038778662e-01  -2.9934483289601571e-01  -2.6375884827807416e-01  -1.7600796794168549e-01  2.5075171314165147e-03  -9.6456713406720007e-01  -6.2701743392772888e-02  1.0531326648467983e-01  1.0255995447656401e+00  1.1098951351560656e-01  2.9418329737372495e-01  2.9930961437737802e-01  4.0931169143823737e-01  4.8495544780088817e-01  2.3243537378049456e-01  4.9464695932293135e-02  9.3108314217040100e-01  2.0625592909126461e-01  -1.0644373355818766e+00  -1.3814001049981012e-01  -2.2429941880077134e-01  -3.2051070456829184e-01  -4.0909217553083832e-01  -4.0314385575405914e-01  -2.4907777529990099e-01  4.6537581258084250e-02  -1.1547135399780080e+00  1.0531326648467983e-01  2.0080092357816962e-01  8.6067939607090649e-01  1.3549834193717672e-01  2.5945923190936593e-01  2.6378680708235336e-01  4.0359934915965751e-01  3.3506360359935522e-01  7.0161670486519140e-02  8.6940858886274897e-02  9.2690293037193650e-01  2.4727267079043858e-01  -9.9010795135218954e-01  -8.3503053953616985e-02  -9.7201511720393013e-02  -3.7450778345081637e-01  -4.8438494021866979e-01  -3.3478140845888077e-01  -2.0366072718426473e-01  2.1645241051944836e-02  -1.1484649049137388e+00  2.0080092357816962e-01  2.0623884998038525e-01  6.7746202676749256e-01  7.7429571484618279e-02  1.5662621153118678e-01  1.7584454527680751e-01  2.4919842382509602e-01  2.0396094167951170e-01  4.6463001773161004e-02  1.2159760390969102e-01  7.1128521836357772e-01  5.5399604282729588e-02  -7.5504536146444168e-01  4.9586104698695593e-02  -9.4247192233059648e-02  -2.7601940043049