<?xml version="1.0"?>
<VTKFile type="UnstructuredGrid"  version="0.1"  >
<UnstructuredGrid>
<Piece  NumberOfPoints="2197" NumberOfCells="10368">
<Points>
<DataArray  type="Float64"  NumberOfComponents="3"  format="ascii">-3.141592653589793 -3.141592653589793 -3.141592653589793  -2.617993877991494 -3.141592653589793 -3.141592653589793  -2.094395102393196 -3.141592653589793 -3.141592653589793  -1.570796326794897 -3.141592653589793 -3.141592653589793  -1.047197551196598 -3.141592653589793 -3.141592653589793  -0.5235987755982987 -3.141592653589793 -3.141592653589793  0 -3.141592653589793 -3.141592653589793  0.5235987755982987 -3.141592653589793 -3.141592653589793  1.047197551196597 -3.141592653589793 -3.141592653589793  1.570796326794897 -3.141592653589793 -3.141592653589793  2.094395102393196 -3.141592653589793 -3.141592653589793  2.617993877991494 -3.141592653589793 -3.141592653589793  3.141592653589793 -3.141592653589793 -3.141592653589793  -3.141592653589793 -2.617993877991494 -3.141592653589793  -2.617993877991494 -2.617993877991494 -3.141592653589793  -2.094395102393196 -2.617993877991494 -3.141592653589793  -1.570796326794897 -2.617993877991494 -3.141592653589793  -1.047197551196598 -2.617993877991494 -3.141592653589793  -0.5235987755982987 -2.617993877991494 -3.141592653589793  0 -2.617993877991494 -3.141592653589793  0.5235987755982987 -2.617993877991494 -3.141592653589793  1.047197551196597 -2.617993877991494 -3.141592653589793  1.570796326794897 -2.617993877991494 -3.141592653589793  2.094395102393196 -2.617993877991494 -3.141592653589793  2.617993877991494 -2.617993877991494 -3.141592653589793  3.141592653589793 -2.617993877991494 -3.141592653589793  -3.141592653589793 -2.094395102393196 -3.141592653589793  -2.617993877991494 -2.094395102393196 -3.141592653589793  -2.094395102393196 -2.094395102393196 -3.141592653589793  -1.570796326794897 -2.094395102393196 -3.141592653589793  -1.047197551196598 -2.094395102393196 -3.141592653589793  -0.5235987755982987 -2.094395102393196 -3.141592653589793  0 -2.094395102393196 -3.141592653589793  0.5235987755982987 -2.094395102393196 -3.141592653589793  1.047197551196597 -2.094395102393196 -3.141592653589793  1.570796326794897 -2.094395102393196 -3.141592653589793  2.094395102393196 -2.094395102393196 -3.141592653589793  2.617993877991494 -2.094395102393196 -3.141592653589793  3.141592653589793 -2.094395102393196 -3.141592653589793  -3.141592653589793 -1.570796326794897 -3.141592653589793  -2.617993877991494 -1.570796326794897 -3.141592653589793  -2.094395102393196 -1.570796326794897 -3.141592653589793  -1.570796326794897 -1.570796326794897 -3.141592653589793  -1.047197551196598 -1.570796326794897 -3.141592653589793  -0.5235987755982987 -1.570796326794897 -3.141592653589793  0 -1.570796326794897 -3.141592653589793  0.5235987755982987 -1.570796326794897 -3.141592653589793  1.047197551196597 -1.570796326794897 -3.141592653589793  1.570796326794897 -1.570796326794897 -3.141592653589793  2.094395102393196 -1.570796326794897 -3.141592653589793  2.617993877991494 -1.570796326794897 -3.141592653589793  3.141592653589793 -1.570796326794897 -3.141592653589793  -3.141592653589793 -1.047197551196598 -3.141592653589793  -2.617993877991494 -1.047197551196598 -3.141592653589793  -2.094395102393196 -1.047197551196598 -3.141592653589793  -1.570796326794897 -1.047197551196598 -3.141592653589793  -1.047197551196598 -1.047197551196598 -3.141592653589793  -0.5235987755982987 -1.047197551196598 -3.141592653589793  0 -1.047197551196598 -3.141592653589793  0.5235987755982987 -1.047197551196598 -3.141592653589793  1.047197551196597 -1.047197551196598 -3.141592653589793  1.570796326794897 -1.047197551196598 -3.141592653589793  2.094395102393196 -1.047197551196598 -3.141592653589793  2.617993877991494 -1.047197551196598 -3.141592653589793  3.141592653589793 -1.047197551196598 -3.141592653589793  -3.141592653589793 -0.5235987755982987 -3.141592653589793  -2.617993877991494 -0.5235987755982987 -3.141592653589793  -2.094395102393196 -0.5235987755982987 -3.141592653589793  -1.570796326794897 -0.5235987755982987 -3.141592653589793  -1.047197551196598 -0.5235987755982987 -3.141592653589793  -0.5235987755982987 -0.5235987755982987 -3.141592653589793  0 -0.5235987755982987 -3.141592653589793  0.5235987755982987 -0.5235987755982987 -3.141592653589793  1.047197551196597 -0.5235987755982987 -3.141592653589793  1.570796326794897 -0.5235987755982987 -3.141592653589793  2.094395102393196 -0.5235987755982987 -3.141592653589793  2.617993877991494 -0.5235987755982987 -3.141592653589793  3.141592653589793 -0.5235987755982987 -3.141592653589793  -3.141592653589793 0 -3.141592653589793  -2.617993877991494 0 -3.141592653589793  -2.094395102393196 0 -3.141592653589793  -1.570796326794897 0 -3.141592653589793  -1.047197551196598 0 -3.141592653589793  -0.5235987755982987 0 -3.141592653589793  0 0 -3.141592653589793  0.5235987755982987 0 -3.141592653589793  1.047197551196597 0 -3.141592653589793  1.570796326794897 0 -3.141592653589793  2.094395102393196 0 -3.141592653589793  2.617993877991494 0 -3.141592653589793  3.141592653589793 0 -3.141592653589793  -3.141592653589793 0.5235987755982987 -3.141592653589793  -2.617993877991494 0.5235987755982987 -3.141592653589793  -2.094395102393196 0.5235987755982987 -3.141592653589793  -1.570796326794897 0.5235987755982987 -3.141592653589793  -1.047197551196598 0.5235987755982987 -3.141592653589793  -0.5235987755982987 0.5235987755982987 -3.141592653589793  0 0.5235987755982987 -3.141592653589793  0.5235987755982987 0.5235987755982987 -3.141592653589793  1.047197551196597 0.5235987755982987 -3.141592653589793  1.570796326794897 0.5235987755982987 -3.141592653589793  2.094395102393196 0.5235987755982987 -3.141592653589793  2.617993877991494 0.5235987755982987 -3.141592653589793  3.141592653589793 0.5235987755982987 -3.141592653589793  -3.141592653589793 1.047197551196597 -3.141592653589793  -2.617993877991494 1.047197551196597 -3.141592653589793  -2.094395102393196 1.047197551196597 -3.141592653589793  -1.570796326794897 1.047197551196597 -3.141592653589793  -1.047197551196598 1.047197551196597 -3.141592653589793  -0.5235987755982987 1.047197551196597 -3.141592653589793  0 1.047197551196597 -3.141592653589793  0.5235987755982987 1.047197551196597 -3.141592653589793  1.047197551196597 1.047197551196597 -3.141592653589793  1.570796326794897 1.047197551196597 -3.141592653589793  2.094395102393196 1.047197551196597 -3.141592653589793  2.617993877991494 1.047197551196597 -3.141592653589793  3.141592653589793 1.047197551196597 -3.141592653589793  -3.141592653589793 1.570796326794897 -3.141592653589793  -2.617993877991494 1.570796326794897 -3.141592653589793  -2.094395102393196 1.570796326794897 -3.141592653589793  -1.570796326794897 1.570796326794897 -3.141592653589793  -1.047197551196598 1.570796326794897 -3.141592653589793  -0.5235987755982987 1.570796326794897 -3.141592653589793  0 1.570796326794897 -3.141592653589793  0.5235987755982987 1.570796326794897 -3.141592653589793  1.047197551196597 1.570796326794897 -3.141592653589793  1.570796326794897 1.570796326794897 -3.141592653589793  2.094395102393196 1.570796326794897 -3.141592653589793  2.617993877991494 1.570796326794897 -3.141592653589793  3.141592653589793 1.570796326794897 -3.141592653589793  -3.141592653589793 2.094395102393196 -3.141592653589793  -2.617993877991494 2.094395102393196 -3.141592653589793  -2.094395102393196 2.094395102393196 -3.141592653589793  -1.570796326794897 2.094395102393196 -3.141592653589793  -1.047197551196598 2.094395102393196 -3.141592653589793  -0.5235987755982987 2.094395102393196 -3.141592653589793  0 2.094395102393196 -3.141592653589793  0.5235987755982987 2.094395102393196 -3.141592653589793  1.047197551196597 2.094395102393196 -3.141592653589793  1.570796326794897 2.094395102393196 -3.141592653589793  2.094395102393196 2.094395102393196 -3.141592653589793  2.617993877991494 2.094395102393196 -3.141592653589793  3.141592653589793 2.094395102393196 -3.141592653589793  -3.141592653589793 2.617993877991494 -3.141592653589793  -2.617993877991494 2.617993877991494 -3.141592653589793  -2.094395102393196 2.617993877991494 -3.141592653589793  -1.570796326794897 2.617993877991494 -3.141592653589793  -1.047197551196598 2.617993877991494 -3.141592653589793  -0.5235987755982987 2.617993877991494 -3.141592653589793  0 2.617993877991494 -3.141592653589793  0.5235987755982987 2.617993877991494 -3.141592653589793  1.047197551196597 2.617993877991494 -3.141592653589793  1.570796326794897 2.617993877991494 -3.141592653589793  2.094395102393196 2.617993877991494 -3.141592653589793  2.617993877991494 2.617993877991494 -3.141592653589793  3.141592653589793 2.617993877991494 -3.141592653589793  -3.141592653589793 3.141592653589793 -3.141592653589793  -2.617993877991494 3.141592653589793 -3.141592653589793  -2.094395102393196 3.141592653589793 -3.141592653589793  -1.570796326794897 3.141592653589793 -3.141592653589793  -1.047197551196598 3.141592653589793 -3.141592653589793  -0.5235987755982987 3.141592653589793 -3.141592653589793  0 3.141592653589793 -3.141592653589793  0.5235987755982987 3.141592653589793 -3.141592653589793  1.047197551196597 3.141592653589793 -3.141592653589793  1.570796326794897 3.141592653589793 -3.141592653589793  2.094395102393196 3.141592653589793 -3.141592653589793  2.617993877991494 3.141592653589793 -3.141592653589793  3.141592653589793 3.141592653589793 -3.141592653589793  -3.141592653589793 -3.141592653589793 -2.617993877991494  -2.617993877991494 -3.141592653589793 -2.617993877991494  -2.094395102393196 -3.141592653589793 -2.617993877991494  -1.570796326794897 -3.141592653589793 -2.617993877991494  -1.047197551196598 -3.141592653589793 -2.617993877991494  -0.5235987755982987 -3.141592653589793 -2.617993877991494  0 -3.141592653589793 -2.617993877991494  0.5235987755982987 -3.141592653589793 -2.617993877991494  1.047197551196597 -3.141592653589793 -2.617993877991494  1.570796326794897 
[...]
<PointData  Scalars="f_243872"> 
<DataArray  type="Float64"  Name="f_243872"  format="ascii">6.2845491198848913e-02  6.6483591296874422e-02  -2.2195220528091929e-02  3.9758848505877797e-03  -3.0902325504997909e-04  -3.8482599762487753e-02  -7.1715302504957265e-02  -3.5913652241929050e-02  -1.2993180234688368e-02  -3.3039941863579735e-04  -3.1170926130066428e-02  5.5305892734197892e-02  6.2845491198848913e-02  4.8985499961670280e-02  -6.9337048171421334e-01  -1.0263187821913964e+00  -1.1598287052545377e+00  -1.0338966878938645e+00  -8.2861553295627066e-01  -5.9434228079564964e-02  6.8103514163562673e-01  1.1418614421557920e+00  1.1285527322407718e+00  9.6241108090820293e-01  8.1676066655542967e-01  4.8985499961670280e-02  7.0364293472193534e-03  -1.1459205939720591e+00  -1.4105745433647785e+00  -1.3274631693207601e+00  -1.6109053225380088e+00  -9.5867199922962665e-01  2.9069569710510661e-02  1.0143556376302072e+00  1.4180835741776141e+00  1.3766166547942460e+00  1.6182098380753394e+00  1.0286746523013683e+00  7.0364293472193534e-03  -9.3018369920239794e-03  -1.1177554294543983e+00  -1.3897203987868183e+00  -1.8093508151760984e+00  -1.3769011703195277e+00  -1.1244095172186201e+00  -6.9643130619559202e-03  1.1661447345723701e+00  1.3273390759979216e+00  1.7953065789432237e+00  1.3231385364449424e+00  1.1643434799660699e+00  -9.3018369920239794e-03  2.7316645374617685e-02  -9.5805464238171378e-01  -1.6212546140322914e+00  -1.3249747759635933e+00  -1.4122101139394900e+00  -1.1470208135843643e+00  8.5755723722432745e-03  1.0394562767649180e+00  1.6189590183561806e+00  1.3672563383110254e+00  1.4108543677652696e+00  1.0119943161591054e+00  2.7316645374617685e-02  -5.5212705693701687e-02  -8.3464916337314032e-01  -1.0264350706532315e+00  -1.1658763169272457e+00  -1.0126130434720837e+00  -6.7883297866009751e-01  4.5895531447029222e-02  8.2680992307379098e-01  9.5968785424143632e-01  1.1193363129868246e+00  1.1397686873744404e+00  6.8139308382577302e-01  -5.5212705693701687e-02  -4.8590104202525755e-02  -4.0501663208203670e-02  -9.6257685345002321e-03  1.0441934347912820e-02  -2.0197795947071544e-02  5.6889477715981157e-02  5.3458119543519166e-02  5.8038066021062533e-02  -2.7226602185108348e-02  5.2228348385587042e-03  -1.0438774866381943e-02  -5.3067221752807293e-02  -4.8590104202525755e-02  -6.4942125491753683e-02  6.8196290235353652e-01  1.1428227450271264e+00  1.1276528864051676e+00  9.6734519180908762e-01  8.2689498837966735e-01  3.8616872216149949e-02  -6.7932578368994212e-01  -1.0198352363585861e+00  -1.1563435701333014e+00  -1.0314711514085297e+00  -8.1746759786897938e-01  -6.4942125491753683e-02  2.4466462155186483e-02  1.0237817979570201e+00  1.4141400211910164e+00  1.3747340794498217e+00  1.6186900923500920e+00  1.0300769366812355e+00  5.8574219559383352e-03  -1.1482306477161697e+00  -1.4124517448397176e+00  -1.3311945354053494e+00  -1.6131603647210613e+00  -9.5809817457696467e-01  2.4466462155186483e-02  -1.0259466815772902e-02  1.1715975927837083e+00  1.3335368309963682e+00  1.8081693588732353e+00  1.3270280971040505e+00  1.1590821172691901e+00  -9.3922419038007868e-03  -1.1261560519842695e+00  -1.3798253454580911e+00  -1.8037826123446958e+00  -1.3744786972796912e+00  -1.1270613597618724e+00  -1.0259466815772902e-02  1.2189990077537920e-02  1.0327408521776222e+00  1.6187849984465403e+00  1.3699468227765861e+00  1.4175594969107177e+00  1.0091119709711314e+00  2.2246485852734432e-02  -9.6647961112941472e-01  -1.5978015507438759e+00  -1.3317022638740883e+00  -1.4098972152733025e+00  -1.1378827638225675e+00  1.2189990077537920e-02  3.6999123652512830e-02  8.3151540331183871e-01  9.5984255411423069e-01  1.1247113673182196e+00  1.1456719218670190e+00  6.9231715679813866e-01  -6.8755730867644499e-02  -8.1936976451498211e-01  -1.0296998638576533e+00  -1.1593601901657680e+00  -1.0154230722779964e+00  -6.7883978531511124e-01  3.6999123652512830e-02  6.2845491198848913e-02  6.6483591296874422e-02  -2.2195220528091929e-02  3.9758848505877797e-03  -3.0902325504997909e-04  -3.8482599762487753e-02  -7.1715302504957265e-02  -3.5913652241929050e-02  -1.2993180234688368e-02  -3.3039941863579735e-04  -3.1170926130066428e-02  5.5305892734197892e-02  6.2845491198848913e-02  5.8782338353889192e-02  1.3943405232048948e-02  -4.0006059901636713e-02  -5.1246005367908644e-03  -6.1491752187068267e-02  -5.8989779381017092e-02  -3.6822100228349870e-02  -1.0969527278526455e-02  2.1172852117618938e-02  -1.1437033940560736e-03  4.4599657665134580e-02  8.6395675525090462e-02  5.8782338353889192e-02  -4.7989096585595858e-03  -6.2623638658924108e-01  -8.8163177467541520e-01  -9.7357311091018128e-01  -9.8209531942963146e-01  -6.5280688283996680e-01  -2.8246886448728678e-02  6.2603256639450877e-01  9.1683174094306585e-01  9.5894319038834119e-01  9.0679585010548502e-01  6.6822375464807748e-01  -4.7989096585595858e-03  -2.6189039692752193e-02  -9.1960889773697907e-01  -1.2209360550423345e+00  -1.3721330534956879e+00  -1.4145859265919660e+00  -7.9826038530996379e-01  4.3665183226513388e-02  8.7760760096836199e-01  1.2137717772317900e+00  1.3941627811859960e+00  1.3956766065119293e+00  8.5914185245839625e-01  -2.6189039692752193e-02  2.4445603806899615e-03  -9.5986165864929518e-01  -1.3948207597690254e+00  -1.6143491439456499e+00  -1.3486231936130380e+00  -9.6458904028884218e-01  1.1374837648180182e-02  9.6237478354854922e-01  1.3729572419829887e+00  1.6135996176194221e+00  1.2828114068205414e+00  9.9941400272269043e-01  2.4445603806899615e-03  -4.4575708440479221e-02  -9.2097330960348700e-01  -1.3919663439909815e+00  -1.2782427532680807e+00  -1.3412359578151869e+00  -1.0036448010474912e+00  6.7169002607141357e-02  9.7649881340466960e-01  1.4019371125588849e+00  1.3367179092650885e+00  1.3294973543261219e+00  8.7080297196085765e-01  -4.4575708440479221e-02  -8.2694524536139777e-02  -6.7367133809098334e-01  -8.5463503265134266e-01  -9.9495152034086920e-01  -8.6974505865572482e-01  -5.0262654958665265e-01  6.1372235274372508e-02  6.5564141886617711e-01  8.0726928498634087e-01  9.6814554537917419e-01  1.0024270751113225e+00  5.0777439218369813e-01  -8.2694524536139777e-02  -5.2616249537466443e-02  -4.2819941039124931e-03  1.9691691478877539e-02  -1.5891742947587682e-03  4.6330110609168113e-02  8.0220680594609156e-02  3.9574952387070719e-02  2.3657731129135984e-02  -3.9118592634200103e-02  -1.0987653371006222e-02  -6.6836524038116518e-02  -5.8185773023653707e-02  -5.2616249537466443e-02  -1.7165804097632058e-02  6.1712915027518500e-01  9.1357856037774443e-01  9.6132687020109420e-01  9.1859319899315162e-01  6.7815616642631737e-01  1.2630469938950889e-02  -6.2781754208843799e-01  -8.7326138530223574e-01  -9.6308156163895975e-01  -9.7657238038328653e-01  -6.5804059666793857e-01  -1.7165804097632058e-02  4.1017298617091150e-02  8.8275875518844549e-01  1.2143599003556091e+00  1.3968389094393872e+00  1.3948547119431296e+00  8.5518983613116117e-01  -3.1341467125836825e-02  -9.1293200096093030e-01  -1.2194255736535304e+00  -1.3725430065574009e+00  -1.3982141944657474e+00  -7.9962644250417891e-01  4.1017298617091150e-02  8.5682324693387817e-03  9.7070106746392970e-01  1.3721188887294420e+00  1.6238144067612996e+00  1.2734142471411232e+00  1.0029206267818918e+00  -5.5580918454306190e-03  -9.5897018649576837e-01  -1.3895337158892953e+00  -1.6174680613860792e+00  -1.3482460579767264e+00  -9.6438898845326171e-01  8.5682324693387817e-03  7.3728931987008375e-02  9.7860497849584849e-01  1.4058572455181211e+00  1.3423035682459088e+00  1.3379719480284866e+00  8.7326925072461603e-01  -5.2077405770221512e-02  -9.1342094410812613e-01  -1.3938682438618457e+00  -1.2867400183658328e+00  -1.3402279998516313e+00  -1.0114043833837234e+00  7.3728931987008375e-02  6.7969002344098417e-02  6.6734437432833571e-01  7.9743435336706392e-01  9.6487277447428388e-01  1.0062257316728453e+00  5.1136576877828466e-01  -7.3190724004612837e-02  -6.8178962765858964e-01  -8.4416928404621416e-01  -9.8433153813305885e-01  -8.7179744272772519e-01  -5.1269232161261225e-01  6.7969002344098417e-02  5.8782338353889192e-02  1.3943405232048948e-02  -4.0006059901636713e-02  -5.1246005367908644e-03  -6.1491752187068267e-02  -5.8989779381017092e-02  -3.6822100228349870e-02  -1.0969527278526455e-02  2.1172852117618938e-02  -1.1437033940560736e-03  4.4599657665134580e-02  8.6395675525090462e-02  5.8782338353889192e-02  1.2633592170421745e-02  1.9658472197823212e-02  -2.2543011732357902e-02  -3.3309214698587469e-02  -4.7477158040888284e-02  -4.8256588509191040e-02  -1.9503522411598990e-02  1.1739548063691644e-03  3.3191266682140369e-02  1.9023126143535424e-02  4.5677437674009107e-02  1.0362874611776558e-02  1.2633592170421745e-02  1.6321770993829695e-02  -3.3929080508696730e-01  -5.2932521334299032e-01  -6.1640271499871757e-01  -5.8260918987765797e-01  -3.2125517488889271e-01  -1.0837756558859834e-02  3.2826526825389357e-01  5.3326480482124616e-01  6.4592683593793021e-01  5.7191548221806399e-01  3.3224230044870662e-01  1.6321770993829695e-02  -2.2440383376281542e-02  -5.3928381466920272e-01  -8.1247750056801304e-01  -9.7596072740490503e-01  -8.4577167654924734e-01  -4.3735191867458861e-01  1.4371699154840011e-02  5.3319312686499465e-01  8.1512277084501850e-01  9.7605137117829266e-01  8.2445782314856986e-01  4.6776760945492446e-01  -2.2440383376281542e-02  -2.5313978890691050e-02  -6.3921164622285753e-01  -9.7958442993946349e-01  -1.0449287630908564e+00  -9.1027066927563927e-01  -5.3236994119590841e-01  3.4957592785042013e-02  6.1799943846317251e-01  9.7456482635413877e-01  1.0400698701075848e+00  9.1584962411057957e-01  5.5410581392831126e-01  -2.5313978890691050e-02  -5.5921780210422059e-02  -5.6710527722892967e-01  -8.2288396516988871e-01  -9.1461346966600132e-01  -8.1611357804536799e-01  -4.9005783027937677e-01  5.4239747284910843e-02  5.9074963043957296e-01  8.5085944273908576e-01  9.0514091561540799e-01  8.0535265445952831e-01  4.6558197560136666e-01  -5.5921780210422059e-02  -2.1292325846395545e-02  -3.3280090835564652e-01  -4.7659693785271667e-01  -5.4944575193042844e-01  -4.5356773406933837e-01  -1.9510737557083585e-01  4.7648133259436010e-02  3.0907138282218888e-01  4.3734111351640864e-01  5.2809409560845033e-01  4.9369918052581796e-01  2.0339151254533469e-01  -2.1292325846395545e-02  -2.6696914927899901e-02  -4.3296636845907748e-03  2.9179864300526642e-02  2.3858455216360794e-02  5.4592641867046640e-02  2.3331804521310059e-02  2.4658819780943371e-02  1.5308837976079325e-02  -2.8041815405910581e-02  -3.5213868319669744e-02  -4.6289271714880210e-02  -4.9863133063887795e-02  -2.6696914927899901e-02  -1.4144945717225499e-02  3.2402851715643854e-01  5.2789319072521801e-01  6.5022814242403359e-01  5.7256745070713178e-01  3.3895910530702228e-01  1.2857768249671784e-02  -3.3361884229071881e-01  -5.2767426571101228e-01  -6.0663028323988744e-01  -5.8698657332442261e-01  -3.1247833381418250e-01  -1.4144945717225499e-02  2.4483778176498681e-02  5.1607277431449872e-01  8.1667371831588664e-01  9.7473232979133140e-01  8.1974827949712481e-01  4.6617349455738316e-01  -3.2915686964966863e-02  -5.3986925236222283e-01  -8.1351229950346426e-01  -9.6608952711434026e-01  -8.4368235439243588e-01  -4.3330178261510754e-01  2.4483778176498681e-02  3.5976126991046666e-02  6.1872446947126403e-01  9.7104659191965703e-01  1.0514667315236144e+00  9.0836224502368312e-01  5.5046958693442882e-01  -3.3955470038293155e-02  -6.4543478346845617e-01  -9.7243073342925812e-01  -1.0459935432566252e+00  -9.0567207964198926e-01  -5.3701048352271763e-01  3.5976126991046666e-02  4.8017315150224990e-02  5.8924070636376824e-01  8.4914445573594444e-01  9.1030339545118533e-01  8.2113134607068927e-01  4.5463350069809677e-01  -5.6569735752143177e-02  -5.6642330617649039e-01  -8.2446410232052192e-01  -9.1102300918965606e-01  -8.1848054138568127e-01  -4.9452530449575166e-01  4.8017315150224990e-02  5.4942858938178220e-02  3.0269662528384861e-01  4.3497576442161762e-01  5.3146861450467864e-01  4.9792863423880879e-01  2.0298805668280331e-01  -1.7557599540912933e-02  -3.2834917781909007e-01  -4.7027434039935895e-01  -5.5373922090025018e-01  -4.5557778011590344e-01  -2.0810566571019906e-01  5.4942858938178220e-02  1.2633592170421745e-02  1.9658472197823212e-02  -2.2543011732357902e-02  -3.3309214698587469e-02  -4.7477158040888284e-02  -4.8256588509191040e-02  -1.9503522411598990e-02  1.1739548063691644e-03  3.3191266682140369e-02  1.9023126143535424e-02  4.5677437674009107e-02  1.0362874611776558e-02  1.2633592170421745e-02  6.7801390845279282e-03  -1.3435931904166580e-02  -1.8300596274175858e-02  -1.1566434247279734e-02  -1.9273155503525357e-02  -1.4708604902954137e-02  3.1006751543661870e-04  8.5191763549913683e-06  2.0343059758009485e-02  3.7922963420458651e-02  2.1235903317808495e-02  1.3915933427255315e-02  6.7801390845279282e-03  -9.1646318375478326e-03  -5.1261940037623153e-02  -5.5681894475890510e-02  -5.5758188906878954e-02  -4.3679985349016077e-02  -3.3310716383900762e-03  1.9271844003437521e-02  5.4482745550588005e-02  8.0782041740520102e-02  4.2165265254976082e-02  6.7260423236412169e-03  1.0170025689607332e-02  -9.1646318375478326e-03  -2.8339275767692622e-02  -7.4985619913913060e-02  -7.8107088827225168e-02  -5.8586692018308149e-02  -4.2235802177089548e-04  3.1559238730369921e-02  2.4709477247857537e-02  3.2313795279359819e-02  8.0166994297994551e-02  5.7669515602527907e-02  -3.6604480521800544e-04  -1.9724894753628125e-03  -2.8339275767692622e-02  -3.1807226739348222e-02  -4.9890255895985766e-02  -5.1837048373957341e-02  -7.1321529704312962e-03  5.7388901615860695e-02  5.2376015587054417e-02  2.1749827499683580e-03  4.5858403661429160e-02  5.9380816658379174e-02  3.8615014298991105e-03  -4.8430752356866398e-02  -4.1507387412986846e-02  -3.1807226739348222e-02  -2.4066420807389823e-02  3.9251053383913890e-04  -3.8919204432500973e-03  4.9857977202253510e-02  9.5208317776963508e-02  4.5818904133802574e-02  2.3321910530311549e-02  4.4632440907702950e-02  -3.7547644289079619e-03  -5.0476978456612497e-02  -8.2049773360756778e-02  -7.4603131849880211e-02  -2.4066420807389823e-02  -1.6744330366180869e-02  -3.2793248632791059e-03  6.8829529629451502e-03  4.7342856011638984e-02  7.6921833257553529e-02  4.9453502477021592e-02  2.0923750398348651e-02  5.5209165557299931e-03  -4.1158978889642893e-02  -4.8277881562224526e-02  -5.5152206220125101e-02  -4.9486430284085080e-02  -1.6744330366180869e-02  9.2948782828358050e-04  1.5327694288655659e-02  2.7253989598571664e-02  2.9957066442397352e-02  2.8952569522382145e-02  8.7965101568190807e-03  6.0642952741450425e-03  -9.1019232019627326e-03  -2.1403478456883594e-02  -2.0424519664107819e-03  -1.5220419944421358e-02  -2.9805087281535348e-02  9.2948782828358050e-04  1.4436660243204613e-02  4.6459203649372928e-02  7.3653074194475157e-02  4.9261785027289326e-02  9.3302026416951633e-03  2.7350808187629467e-03  -4.1221108580584611e-03  -4.8870203147908742e-02  -4.6143632207438431e-02  -3.6520607044367784e-02  -4.5759358241225283e-02  -8.7391227836921528e-04  1.4436660243204613e-02  1.0464057451537546e-02  4.9081644865330405e-02  7.9596035747535585e-02  4.6348834200971238e-02  -8.9141045586952645e-03  -8.8669914142790844e-03  -3.1705105375103800e-02  -7.7505197293091660e-02  -7.4704812207950888e-02  -5.8154045845074206e-02  3.6206124209994927e-03  4.1052534821281572e-02  1.0464057451537546e-02  -2.3462417516671289e-03  4.8692558190797208e-02  5.6914172537749441e-02  -2.9432087529459245e-03  -5.2765820041054262e-02  -5.6476388733961047e-02  -3.1073981658869366e-02  -4.5163098126746265e-02  -4.7072826914090524e-02  -1.5386004494667238e-03  6.9453629719543775e-02  4.5653514005021094e-02  -2.3462417516671289e-03  2.4460566686717502e-02  4.8524722488375589e-02  5.3651400726749589e-03  -5.3285345909856313e-02  -7.8504420076535394e-02  -7.7012446002427959e-02  -4.0232739165154408e-02  -2.2018562559569564e-03  -2.0773400986706897e-03  4.5639583886631925e-02  7.4048756989845727e-02  4.4303375828442376e-02  2.4460566686717502e-02  2.0239530397357215e-02  -3.5409167358833767e-03  -3.8594299351408512e-02  -4.1371627948282780e-02  -4.8329920411331988e-02  -5.2374845348546042e-02  -6.9760336101686330e-03  -2.4478916740758815e-04  1.4432996415410489e-02  3.1296232970137255e-02  7.9487074657290185e-02  4.6648315947555266e-02  2.0239530397357215e-02  6.7801390845279282e-03  -1.3435931904166580e-02  -1.8300596274175858e-02  -1.1566434247279734e-02  -1.9273155503525357e-02  -1.4708604902954137e-02  3.1006751543661870e-04  8.5191763549913683e-06  2.0343059758009485e-02  3.7922963420458651e-02  2.1235903317808495e-02  1.3915933427255315e-02  6.7801390845279282e-03  -2.1623937908860195e-02  -4.5563333485002799e-02  -5.4538862518023055e-02  -3.5315268811620552e-02  -3.5482989601335925e-02  1.5698230547627944e-02  1.5009807778238573e-02  3.2200445116756328e-02  6.1849425199654966e-02  2.4861581021898390e-02  2.6378992987302948e-02  2.2919393159339715e-03  -2.1623937908860195e-02  -2.1160816944650312e-02  2.0197639116445631e-01  5.0098533878949725e-01  5.3155144189217240e-01  4.4039628181515678e-01  3.0427127225244016e-01  5.0433217042237168e-02  -2.0920736985884086e-01  -4.6905342761079810e-01  -5.6473613693067293e-01  -4.7352646527251835e-01  -3.3029777536424715e-01  -2.1160816944650312e-02  -5.1721777349919514e-02  4.5076350569411661e-01  8.2353288994699470e-01  9.1088631255167174e-01  8.4466623096160776e-01  5.9001014175845456e-01  4.9397719308582368e-02  -5.0084638182048791e-01  -8.1687938049335906e-01  -9.1168376030279585e-01  -8.1694362562380318e-01  -5.6301411979757765e-01  -5.1721777349919514e-02  -2.5984664792934955e-02  5.5776164140341389e-01  9.0728235471521601e-01  1.0528160586331365e+00  9.7059496442292625e-01  6.1523739989577420e-01  1.9108303757730559e-02  -5.3661031181031960e-01  -9.0248989849140382e-01  -1.0423465089600485e+00  -9.7637559159884890e-01  -6.3450074006472212e-01  -2.5984664792934955e-02  -1.5712273555590898e-02  4.6919549927468579e-01  8.2640023654341954e-01  9.8492739512205840e-01  8.0730894463576131e-01  5.1594741376263886e-01  2.1071009232480200e-02  -4.3699802802619325e-01  -8.5686473186512135e-01  -9.7210969850844298e-01  -8.1330108748670171e-01  -5.3441360485786082e-01  -1.5712273555590898e-02  8.7544465093029270e-03  3.3066422924416239e-01  5.6628957351003117e-01  6.3448752411720089e-01  5.3220090050037727e-01  3.2158780046826946e-01  9.4159433431787346e-05  -3.1033470594931856e-01  -5.9785164915411027e-01  -6.2005380038893698e-01  -5.1791541622739912e-01  -3.4006403111697853e-01  8.7544465093029270e-03  1.8678136681154579e-02  3.1335684090866948e-02  4.7929040236483006e-02  2.1893153220657793e-02  3.6156847804078587e-02  -5.4393724348747435e-03  -1.1554510517642086e-02  -4.8249276052061842e-02  -2.7774902606363464e-02  -1.5702013180514118e-02  -1.1301750503128472e-02  5.1556212812995288e-03  1.8678136681154579e-02  4.9901066918221222e-02  -2.0526682004297372e-01  -4.6240280705001208e-01  -5.5839460268472940e-01  -4.7330433601199057e-01  -3.3296492340663175e-01  -2.9535000361836355e-02  2.2220089594719583e-01  5.0325177661776932e-01  5.4316312947872425e-01  4.3372991798236382e-01  2.9429977190361345e-01  4.9901066918221222e-02  4.4453497067395244e-02  -4.9408227586305553e-01  -8.1657678356101326e-01  -9.1096820831417236e-01  -8.2924445186491746e-01  -5.6832998641546717e-01  -5.4798805943972240e-02  4.7135202284034644e-01  8.2221597120305023e-01  9.1784313646369087e-01  8.4347447445227686e-01  5.9044205889155721e-01  4.4453497067395244e-02  2.3568125669567837e-02  -5.3054690103797497e-01  -9.2057305478606322e-01  -1.0412295585155984e+00  -9.8606237784085038e-01  -6.4841782197043785e-01  -2.4414603536782695e-02  5.5981933318956745e-01  9.0839069209149792e-01  1.0586720445029654e+00  9.8275473504179023e-01  6.1993251709727382e-01  2.3568125669567837e-02  1.0845123886238494e-02  -4.4009726975262492e-01  -8.4068636429614385e-01  -9.6378501870434485e-01  -8.1158591063081365e-01  -5.4316663421934896e-01  -2.80078083