<?xml version="1.0"?>
<VTKFile type="UnstructuredGrid"  version="0.1"  >
<UnstructuredGrid>
<Piece  NumberOfPoints="2197" NumberOfCells="10368">
<Points>
<DataArray  type="Float64"  NumberOfComponents="3"  format="ascii">-3.141592653589793 -3.141592653589793 -3.141592653589793  -2.617993877991494 -3.141592653589793 -3.141592653589793  -2.094395102393196 -3.141592653589793 -3.141592653589793  -1.570796326794897 -3.141592653589793 -3.141592653589793  -1.047197551196598 -3.141592653589793 -3.141592653589793  -0.5235987755982987 -3.141592653589793 -3.141592653589793  0 -3.141592653589793 -3.141592653589793  0.5235987755982987 -3.141592653589793 -3.141592653589793  1.047197551196597 -3.141592653589793 -3.141592653589793  1.570796326794897 -3.141592653589793 -3.141592653589793  2.094395102393196 -3.141592653589793 -3.141592653589793  2.617993877991494 -3.141592653589793 -3.141592653589793  3.141592653589793 -3.141592653589793 -3.141592653589793  -3.141592653589793 -2.617993877991494 -3.141592653589793  -2.617993877991494 -2.617993877991494 -3.141592653589793  -2.094395102393196 -2.617993877991494 -3.141592653589793  -1.570796326794897 -2.617993877991494 -3.141592653589793  -1.047197551196598 -2.617993877991494 -3.141592653589793  -0.5235987755982987 -2.617993877991494 -3.141592653589793  0 -2.617993877991494 -3.141592653589793  0.5235987755982987 -2.617993877991494 -3.141592653589793  1.047197551196597 -2.617993877991494 -3.141592653589793  1.570796326794897 -2.617993877991494 -3.141592653589793  2.094395102393196 -2.617993877991494 -3.141592653589793  2.617993877991494 -2.617993877991494 -3.141592653589793  3.141592653589793 -2.617993877991494 -3.141592653589793  -3.141592653589793 -2.094395102393196 -3.141592653589793  -2.617993877991494 -2.094395102393196 -3.141592653589793  -2.094395102393196 -2.094395102393196 -3.141592653589793  -1.570796326794897 -2.094395102393196 -3.141592653589793  -1.047197551196598 -2.094395102393196 -3.141592653589793  -0.5235987755982987 -2.094395102393196 -3.141592653589793  0 -2.094395102393196 -3.141592653589793  0.5235987755982987 -2.094395102393196 -3.141592653589793  1.047197551196597 -2.094395102393196 -3.141592653589793  1.570796326794897 -2.094395102393196 -3.141592653589793  2.094395102393196 -2.094395102393196 -3.141592653589793  2.617993877991494 -2.094395102393196 -3.141592653589793  3.141592653589793 -2.094395102393196 -3.141592653589793  -3.141592653589793 -1.570796326794897 -3.141592653589793  -2.617993877991494 -1.570796326794897 -3.141592653589793  -2.094395102393196 -1.570796326794897 -3.141592653589793  -1.570796326794897 -1.570796326794897 -3.141592653589793  -1.047197551196598 -1.570796326794897 -3.141592653589793  -0.5235987755982987 -1.570796326794897 -3.141592653589793  0 -1.570796326794897 -3.141592653589793  0.5235987755982987 -1.570796326794897 -3.141592653589793  1.047197551196597 -1.570796326794897 -3.141592653589793  1.570796326794897 -1.570796326794897 -3.141592653589793  2.094395102393196 -1.570796326794897 -3.141592653589793  2.617993877991494 -1.570796326794897 -3.141592653589793  3.141592653589793 -1.570796326794897 -3.141592653589793  -3.141592653589793 -1.047197551196598 -3.141592653589793  -2.617993877991494 -1.047197551196598 -3.141592653589793  -2.094395102393196 -1.047197551196598 -3.141592653589793  -1.570796326794897 -1.047197551196598 -3.141592653589793  -1.047197551196598 -1.047197551196598 -3.141592653589793  -0.5235987755982987 -1.047197551196598 -3.141592653589793  0 -1.047197551196598 -3.141592653589793  0.5235987755982987 -1.047197551196598 -3.141592653589793  1.047197551196597 -1.047197551196598 -3.141592653589793  1.570796326794897 -1.047197551196598 -3.141592653589793  2.094395102393196 -1.047197551196598 -3.141592653589793  2.617993877991494 -1.047197551196598 -3.141592653589793  3.141592653589793 -1.047197551196598 -3.141592653589793  -3.141592653589793 -0.5235987755982987 -3.141592653589793  -2.617993877991494 -0.5235987755982987 -3.141592653589793  -2.094395102393196 -0.5235987755982987 -3.141592653589793  -1.570796326794897 -0.5235987755982987 -3.141592653589793  -1.047197551196598 -0.5235987755982987 -3.141592653589793  -0.5235987755982987 -0.5235987755982987 -3.141592653589793  0 -0.5235987755982987 -3.141592653589793  0.5235987755982987 -0.5235987755982987 -3.141592653589793  1.047197551196597 -0.5235987755982987 -3.141592653589793  1.570796326794897 -0.5235987755982987 -3.141592653589793  2.094395102393196 -0.5235987755982987 -3.141592653589793  2.617993877991494 -0.5235987755982987 -3.141592653589793  3.141592653589793 -0.5235987755982987 -3.141592653589793  -3.141592653589793 0 -3.141592653589793  -2.617993877991494 0 -3.141592653589793  -2.094395102393196 0 -3.141592653589793  -1.570796326794897 0 -3.141592653589793  -1.047197551196598 0 -3.141592653589793  -0.5235987755982987 0 -3.141592653589793  0 0 -3.141592653589793  0.5235987755982987 0 -3.141592653589793  1.047197551196597 0 -3.141592653589793  1.570796326794897 0 -3.141592653589793  2.094395102393196 0 -3.141592653589793  2.617993877991494 0 -3.141592653589793  3.141592653589793 0 -3.141592653589793  -3.141592653589793 0.5235987755982987 -3.141592653589793  -2.617993877991494 0.5235987755982987 -3.141592653589793  -2.094395102393196 0.5235987755982987 -3.141592653589793  -1.570796326794897 0.5235987755982987 -3.141592653589793  -1.047197551196598 0.5235987755982987 -3.141592653589793  -0.5235987755982987 0.5235987755982987 -3.141592653589793  0 0.5235987755982987 -3.141592653589793  0.5235987755982987 0.5235987755982987 -3.141592653589793  1.047197551196597 0.5235987755982987 -3.141592653589793  1.570796326794897 0.5235987755982987 -3.141592653589793  2.094395102393196 0.5235987755982987 -3.141592653589793  2.617993877991494 0.5235987755982987 -3.141592653589793  3.141592653589793 0.5235987755982987 -3.141592653589793  -3.141592653589793 1.047197551196597 -3.141592653589793  -2.617993877991494 1.047197551196597 -3.141592653589793  -2.094395102393196 1.047197551196597 -3.141592653589793  -1.570796326794897 1.047197551196597 -3.141592653589793  -1.047197551196598 1.047197551196597 -3.141592653589793  -0.5235987755982987 1.047197551196597 -3.141592653589793  0 1.047197551196597 -3.141592653589793  0.5235987755982987 1.047197551196597 -3.141592653589793  1.047197551196597 1.047197551196597 -3.141592653589793  1.570796326794897 1.047197551196597 -3.141592653589793  2.094395102393196 1.047197551196597 -3.141592653589793  2.617993877991494 1.047197551196597 -3.141592653589793  3.141592653589793 1.047197551196597 -3.141592653589793  -3.141592653589793 1.570796326794897 -3.141592653589793  -2.617993877991494 1.570796326794897 -3.141592653589793  -2.094395102393196 1.570796326794897 -3.141592653589793  -1.570796326794897 1.570796326794897 -3.141592653589793  -1.047197551196598 1.570796326794897 -3.141592653589793  -0.5235987755982987 1.570796326794897 -3.141592653589793  0 1.570796326794897 -3.141592653589793  0.5235987755982987 1.570796326794897 -3.141592653589793  1.047197551196597 1.570796326794897 -3.141592653589793  1.570796326794897 1.570796326794897 -3.141592653589793  2.094395102393196 1.570796326794897 -3.141592653589793  2.617993877991494 1.570796326794897 -3.141592653589793  3.141592653589793 1.570796326794897 -3.141592653589793  -3.141592653589793 2.094395102393196 -3.141592653589793  -2.617993877991494 2.094395102393196 -3.141592653589793  -2.094395102393196 2.094395102393196 -3.141592653589793  -1.570796326794897 2.094395102393196 -3.141592653589793  -1.047197551196598 2.094395102393196 -3.141592653589793  -0.5235987755982987 2.094395102393196 -3.141592653589793  0 2.094395102393196 -3.141592653589793  0.5235987755982987 2.094395102393196 -3.141592653589793  1.047197551196597 2.094395102393196 -3.141592653589793  1.570796326794897 2.094395102393196 -3.141592653589793  2.094395102393196 2.094395102393196 -3.141592653589793  2.617993877991494 2.094395102393196 -3.141592653589793  3.141592653589793 2.094395102393196 -3.141592653589793  -3.141592653589793 2.617993877991494 -3.141592653589793  -2.617993877991494 2.617993877991494 -3.141592653589793  -2.094395102393196 2.617993877991494 -3.141592653589793  -1.570796326794897 2.617993877991494 -3.141592653589793  -1.047197551196598 2.617993877991494 -3.141592653589793  -0.5235987755982987 2.617993877991494 -3.141592653589793  0 2.617993877991494 -3.141592653589793  0.5235987755982987 2.617993877991494 -3.141592653589793  1.047197551196597 2.617993877991494 -3.141592653589793  1.570796326794897 2.617993877991494 -3.141592653589793  2.094395102393196 2.617993877991494 -3.141592653589793  2.617993877991494 2.617993877991494 -3.141592653589793  3.141592653589793 2.617993877991494 -3.141592653589793  -3.141592653589793 3.141592653589793 -3.141592653589793  -2.617993877991494 3.141592653589793 -3.141592653589793  -2.094395102393196 3.141592653589793 -3.141592653589793  -1.570796326794897 3.141592653589793 -3.141592653589793  -1.047197551196598 3.141592653589793 -3.141592653589793  -0.5235987755982987 3.141592653589793 -3.141592653589793  0 3.141592653589793 -3.141592653589793  0.5235987755982987 3.141592653589793 -3.141592653589793  1.047197551196597 3.141592653589793 -3.141592653589793  1.570796326794897 3.141592653589793 -3.141592653589793  2.094395102393196 3.141592653589793 -3.141592653589793  2.617993877991494 3.141592653589793 -3.141592653589793  3.141592653589793 3.141592653589793 -3.141592653589793  -3.141592653589793 -3.141592653589793 -2.617993877991494  -2.617993877991494 -3.141592653589793 -2.617993877991494  -2.094395102393196 -3.141592653589793 -2.617993877991494  -1.570796326794897 -3.141592653589793 -2.617993877991494  -1.047197551196598 -3.141592653589793 -2.617993877991494  -0.5235987755982987 -3.141592653589793 -2.617993877991494  0 -3.141592653589793 -2.617993877991494  0.5235987755982987 -3.141592653589793 -2.617993877991494  1.047197551196597 -3.141592653589793 -2.617993877991494  1.570796326794897 
[...]
<PointData  Scalars="f_76076"> 
<DataArray  type="Float64"  Name="f_76076"  format="ascii">5.6494830733566724e-02  4.5300044971064962e-02  2.1166840892246602e-02  -2.8988672609688059e-03  -1.4141434130073771e-02  -4.3114141149429498e-02  -5.5800501048178186e-02  -4.1126643941390310e-02  -2.2612744046167057e-02  -3.0152426015998333e-03  1.6060941054133904e-02  4.1461829118561153e-02  5.6494830733566724e-02  4.7013133803425852e-02  -5.2393899163446622e-01  -9.1870541056085908e-01  -1.0633004825776959e+00  -9.6672851495376189e-01  -5.9734961643201956e-01  -4.4778081605415007e-02  5.2507242693381906e-01  9.2711402241568375e-01  1.0668040208804122e+00  9.5356208249905494e-01  5.9100226674173750e-01  4.7013133803425852e-02  1.7040109380156557e-02  -9.2966437563283988e-01  -1.5711392418866226e+00  -1.8147289121467820e+00  -1.6081050089460938e+00  -9.5217753818308104e-01  -1.6742144097806465e-02  9.1385559787144555e-01  1.5718217636108764e+00  1.8137549346431714e+00  1.6126969443269350e+00  9.6739319613788533e-01  1.7040109380156557e-02  -3.6741354873780154e-04  -1.0615800574519041e+00  -1.8184040210662791e+00  -2.0858721358446779e+00  -1.8132531221999797e+00  -1.0652536338495715e+00  1.0207247147563465e-03  1.0639975149814538e+00  1.8131939768206247e+00  2.0794240690423704e+00  1.8105024870851252e+00  1.0629299917762873e+00  -3.6741354873780154e-04  -1.6257001459463807e-02  -9.5320883411768742e-01  -1.6123158608568793e+00  -1.8122219642618442e+00  -1.5729131148190456e+00  -9.2902878228333352e-01  1.7756921483556069e-02  9.6829448468664581e-01  1.6156389827716202e+00  1.8083835164566076e+00  1.5710204069780784e+00  9.1302588738262480e-01  -1.6257001459463807e-02  -4.2478715942859853e-02  -5.9855449315831333e-01  -9.6495182362829091e-01  -1.0649819634647573e+00  -9.1203223893813945e-01  -5.2281536277928564e-01  4.4876301284667137e-02  5.9647811449585864e-01  9.5046646652637179e-01  1.0666227043678396e+00  9.2666039729489869e-01  5.2342723511539413e-01  -4.2478715942859853e-02  -5.1128160060384967e-02  -4.2849744574387720e-02  -1.8371412557400574e-02  3.5945276975356646e-04  2.0742705946544364e-02  4.0425058125738399e-02  5.3906970034867531e-02  4.0524488911154559e-02  2.1129632313513579e-02  -2.5143503359929364e-03  -1.7719901390902938e-02  -4.3978281856871200e-02  -5.1128160060384967e-02  -4.4307240995663348e-02  5.2286680944234987e-01  9.2691165171546408e-01  1.0694056850143623e+00  9.5269598641875763e-01  5.9619475651690945e-01  4.1464595836047009e-02  -5.2357683646611608e-01  -9.1466586198078503e-01  -1.0654224823083758e+00  -9.6271313786846369e-01  -5.9613098701804901e-01  -4.4307240995663348e-02  -1.9762785963582507e-02  9.1622416064772427e-01  1.5732316199743528e+00  1.8109800464915082e+00  1.6146696535964455e+00  9.6374179016853601e-01  1.8959402744728401e-02  -9.2969562336182299e-01  -1.5703571996950414e+00  -1.8159026303543391e+00  -1.6079069964981878e+00  -9.5157629107099628e-01  -1.9762785963582507e-02  9.3164049229037683e-04  1.0672671912453751e+00  1.8141637476382588e+00  2.0849451564337640e+00  1.8164036179794187e+00  1.0586499051241320e+00  1.0763359058520443e-03  -1.0664763038814415e+00  -1.8138110490799737e+00  -2.0827218137854402e+00  -1.8140191647498536e+00  -1.0661760311121486e+00  9.3164049229037683e-04  1.5960431340475416e-02  9.6472644183670098e-01  1.6151641519870630e+00  1.8093390047346747e+00  1.5693536306955707e+00  9.1665258087287171e-01  -2.1303300582755355e-02  -9.5398058135632469e-01  -1.6031622633092333e+00  -1.8140077324569595e+00  -1.5692577806166970e+00  -9.2511570173766089e-01  1.5960431340475416e-02  4.0365322387279565e-02  5.9795019687676598e-01  9.5362132825584223e-01  1.0639331724197976e+00  9.3023813034805725e-01  5.2685454748678096e-01  -4.5941778418507696e-02  -5.9420896220687525e-01  -9.6505864015987242e-01  -1.0654725028884757e+00  -9.1438645221352510e-01  -5.2312612072125309e-01  4.0365322387279565e-02  5.6494830733566724e-02  4.5300044971064962e-02  2.1166840892246602e-02  -2.8988672609688059e-03  -1.4141434130073771e-02  -4.3114141149429498e-02  -5.5800501048178186e-02  -4.1126643941390310e-02  -2.2612744046167057e-02  -3.0152426015998333e-03  1.6060941054133904e-02  4.1461829118561153e-02  5.6494830733566724e-02  4.9002278145755647e-02  2.2252727706214739e-02  -2.6148700633671115e-03  -2.1288330968423058e-02  -3.6504729107310119e-02  -5.2522542337791030e-02  -4.2979988602796289e-02  -2.5648207909158536e-02  6.5405271638642676e-03  2.3593805983388786e-02  4.2181938692797981e-02  5.3955546974149934e-02  4.9002278145755647e-02  1.9760432258898605e-02  -4.7087790868569807e-01  -8.1555878702697016e-01  -9.4918718613056074e-01  -8.5102930958090595e-01  -5.0890915536806558e-01  -2.7485886421238493e-02  4.7116960150832049e-01  8.1558909499043253e-01  9.4432587423501946e-01  8.4052953834220290e-01  5.1074975625239427e-01  1.9760432258898605e-02  -4.8810310453722026e-03  -8.1800854372730525e-01  -1.3867703320154199e+00  -1.5979676813165009e+00  -1.3977122536312372e+00  -8.1079546863108209e-01  4.5857486798701972e-03  8.1208166824394779e-01  1.3863144497324724e+00  1.5946824849198800e+00  1.3994880645135890e+00  8.2213091954273498e-01  -4.8810310453722026e-03  -2.3580904444635061e-02  -9.4643413307872037e-01  -1.5937665094773068e+00  -1.8159579387247340e+00  -1.5741175079420884e+00  -9.0739271563945401e-01  2.3430973951171431e-02  9.4799784797115183e-01  1.5985721287463075e+00  1.8174150269054268e+00  1.5658340859632573e+00  9.0476183795314047e-01  -2.3580904444635061e-02  -4.2246307073614840e-02  -8.4450223680255476e-01  -1.3995635538173903e+00  -1.5659118249296715e+00  -1.3533513775251604e+00  -7.8067808549105167e-01  3.9914375738841761e-02  8.4908496988764837e-01  1.3936381572570460e+00  1.5662283559236729e+00  1.3487798450209216e+00  7.7245143445239961e-01  -4.2246307073614840e-02  -5.1296271704092643e-02  -5.1195027176100394e-01  -8.1862039784846430e-01  -9.0721692099486806e-01  -7.7073508415217251e-01  -4.2521334981684467e-01  5.2990279652207317e-02  5.1029919975125471e-01  8.1190954210243171e-01  9.1132625217467766e-01  7.8247757402148199e-01  4.2408433247891247e-01  -5.1296271704092643e-02  -4.7982840612624596e-02  -2.0501598295766955e-02  3.5724274614114494e-03  2.5527592480134517e-02  4.1348517380259860e-02  5.2494103071221446e-02  4.6412500180377757e-02  2.4295715421383111e-02  -1.8591031810750907e-03  -2.2870349555697771e-02  -4.0185369369594069e-02  -5.1453745549750657e-02  -4.7982840612624596e-02  -2.6198471001635786e-02  4.6696759861040366e-01  8.1813030413766319e-01  9.4387102447300752e-01  8.4533508660486445e-01  5.1087340840245832e-01  2.2297006432876250e-02  -4.7127403006699270e-01  -8.1272428989298617e-01  -9.4740164291595852e-01  -8.5005422736082226e-01  -5.1189637875787986e-01  -2.6198471001635786e-02  7.1603090068281935e-03  8.1481925931210863e-01  1.3836949348548129e+00  1.5973810235100836e+00  1.3998510499735959e+00  8.2195952798221006e-01  -9.2776715759302613e-03  -8.1486807814710027e-01  -1.3845784419806459e+00  -1.5988239498551151e+00  -1.3903614790439023e+00  -8.0985996897107904e-01  7.1603090068281935e-03  1.9768786301948834e-02  9.5108817125829948e-01  1.5973661659696510e+00  1.8195714573062329e+00  1.5613337032952261e+00  9.0723248213937391e-01  -2.5819880154110943e-02  -9.4761260140644044e-01  -1.5934384193283964e+00  -1.8166572702913533e+00  -1.5728391523432281e+00  -9.0774026176860467e-01  1.9768786301948834e-02  4.2287812012171966e-02  8.4934273268808180e-01  1.3963384727989414e+00  1.5683910567871575e+00  1.3522065449252305e+00  7.7514672471447943e-01  -4.5719541986246275e-02  -8.4239072691546546e-01  -1.3966120783215912e+00  -1.5697142906440444e+00  -1.3512325276932062e+00  -7.8575242968957160e-01  4.2287812012171966e-02  5.5414164018547034e-02  5.1599771048852983e-01  8.0594963366938455e-01  9.0997689249698177e-01  7.8270946037949918e-01  4.2280177200635638e-01  -4.6340469472489210e-02  -5.1339080173795681e-01  -8.1427702530995461e-01  -9.0437452781503458e-01  -7.7339711214040285e-01  -4.2628527068831462e-01  5.5414164018547034e-02  4.9002278145755647e-02  2.2252727706214739e-02  -2.6148700633671115e-03  -2.1288330968423058e-02  -3.6504729107310119e-02  -5.2522542337791030e-02  -4.2979988602796289e-02  -2.5648207909158536e-02  6.5405271638642676e-03  2.3593805983388786e-02  4.2181938692797981e-02  5.3955546974149934e-02  4.9002278145755647e-02  2.2474664971103186e-02  1.9050783377830170e-03  -2.1811347818892886e-02  -4.2273146785492759e-02  -4.8300915680106610e-02  -4.5941874436827297e-02  -2.5018936735750768e-02  2.1055992100322708e-03  2.5810979243333993e-02  3.8215280519171987e-02  4.7150887352763453e-02  3.7581255791865685e-02  2.2474664971103186e-02  4.2386093188461049e-03  -2.9282348057496937e-01  -4.9830795518158444e-01  -5.7894470486130400e-01  -4.9868146479943942e-01  -2.9648327067695129e-01  2.0094957034283668e-03  2.8810056000925527e-01  4.9862997434412787e-01  5.7857930821670234e-01  5.0382089094644966e-01  2.9056240314897192e-01  4.2386093188461049e-03  -2.3106668489152299e-02  -5.0017934491529570e-01  -8.3789474808973874e-01  -9.4915541404427062e-01  -8.1203786343249240e-01  -4.5478026808727989e-01  1.9303551179494043e-02  5.0295899373431086e-01  8.3591591690273448e-01  9.4807239637010599e-01  8.1116892046520039e-01  4.5272501404583093e-01  -2.3106668489152299e-02  -4.0841929908710266e-02  -5.7615321660603713e-01  -9.4870217206411644e-01  -1.0647000811400991e+00  -9.0249146158631177e-01  -5.0467227389064950e-01  4.1883747850042716e-02  5.7778872772398226e-01  9.5088366969718663e-01  1.0618149493800353e+00  9.0336917887915635e-01  5.0321118752579552e-01  -4.0841929908710266e-02  -4.9690460467942982e-02  -5.0335758930861141e-01  -8.1110348505313556e-01  -9.0323261500589980e-01  -7.6285718144266579e-01  -4.1383430515046005e-01  5.1373952934735886e-02  5.0193681172539584e-01  8.1287663219111428e-01  9.0159002743814898e-01  7.6011309474786370e-01  4.1733559754319055e-01  -4.9690460467942982e-02  -4.1825091858959114e-02  -2.9113833909569004e-01  -4.5670734674924729e-01  -4.9970286176739426e-01  -4.1461709658218598e-01  -2.1143265212177140e-01  4.5358968696434132e-02  2.9422795856849737e-01  4.5424689925213180e-01  5.0371395962457211e-01  4.1422418265951272e-01  2.1419509127359218e-01  -4.1825091858959114e-02  -2.7114208942289268e-02  1.0551761300988702e-03  2.3458072899578273e-02  4.1508141506946872e-02  4.9001916148824216e-02  4.3040563536829599e-02  2.5763537605853024e-02  -1.3046394034181249e-03  -2.3622506856458968e-02  -4.2488214123439394e-02  -4.9439587303639898e-02  -4.4956347899252104e-02  -2.7114208942289268e-02  7.5821583323778760e-04  2.8781001647387822e-01  4.9709125152883316e-01  5.7934517818102815e-01  5.0533235179205738e-01  2.9245388423795121e-01  1.4516407159456046e-03  -2.8915123584186880e-01  -5.0120034748380282e-01  -5.7407938171056183e-01  -5.0054344180858434e-01  -2.9390283404707362e-01  7.5821583323778760e-04  2.3121969301118765e-02  4.9514048057194548e-01  8.3760041732583823e-01  9.4688104089900849e-01  8.0929234484770718e-01  4.5197248822745539e-01  -2.4216202815449093e-02  -5.0130299551675184e-01  -8.3607081597028021e-01  -9.4809743492888909e-01  -8.0917923197572006e-01  -4.5400553257171589e-01  2.3121969301118765e-02  4.2984362857145152e-02  5.7610750783824627e-01  9.4914404254643658e-01  1.0660440350735247e+00  9.0195126666034375e-01  5.0166938633200331e-01  -4.5018636498278052e-02  -5.7869473191101428e-01  -9.4725749603633380e-01  -1.0641444392107080e+00  -9.0116670456806547e-01  -5.0565573012737441e-01  4.2984362857145152e-02  4.8779845332810032e-02  5.0254456691653926e-01  8.1107958601709329e-01  9.0201244349040577e-01  7.6711666296457082e-01  4.1412629510566729e-01  -5.0449165830011501e-02  -5.0032301587428019e-01  -8.1029585126982562e-01  -9.0257649322750055e-01  -7.6288683349879338e-01  -4.1536169167778081e-01  4.8779845332810032e-02  4.8270391149824093e-02  2.8958942861111314e-01  4.5638020126111067e-01  5.0517612898114572e-01  4.1264383753039541e-01  2.1502562241141185e-01  -3.8768078754309751e-02  -2.9028282671181688e-01  -4.5622325087931803e-01  -5.0039462535711121e-01  -4.1439389219077483e-01  -2.1683100446531045e-01  4.8270391149824093e-02  2.2474664971103186e-02  1.9050783377830170e-03  -2.1811347818892886e-02  -4.2273146785492759e-02  -4.8300915680106610e-02  -4.5941874436827297e-02  -2.5018936735750768e-02  2.1055992100322708e-03  2.5810979243333993e-02  3.8215280519171987e-02  4.7150887352763453e-02  3.7581255791865685e-02  2.2474664971103186e-02  2.6111324240355146e-03  -2.2289263488810961e-02  -4.0673580900055170e-02  -5.1059757024770287e-02  -4.1966367330776105e-02  -2.3509808073037854e-02  -2.4397183160403344e-04  2.0605440429275930e-02  4.0108839670176963e-02  5.1578798298930452e-02  3.8983699984593188e-02  2.5930013069183674e-02  2.6111324240355146e-03  -2.3498538230388707e-02  -4.3781376369002374e-02  -5.3632866419620069e-02  -4.5480863508879615e-02  -2.5610392027811190e-02  -1.0384018896639922e-03  2.4052612745423332e-02  4.5175513293922699e-02  5.2221558330567033e-02  4.0070248262810207e-02  2.3449720299391262e-02  3.3120471932564853e-03  -2.3498538230388707e-02  -4.2796448298789966e-02  -5.0547366491965819e-02  -4.4641041414239566e-02  -2.7613231792631716e-02  -5.9209829555248732e-04  2.1505332286831932e-02  4.3622456298561506e-02  4.5887748334914644e-02  4.6491615930202020e-02  2.8820957751910781e-02  -8.1760762312467190e-04  -2.0866544974851339e-02  -4.2796448298789966e-02  -4.9829851102106262e-02  -4.2744799346677312e-02  -2.7479145771201433e-02  -2.0496368034419840e-03  2.7083598369892457e-02  4.5292103256584039e-02  4.7215258930228585e-02  4.2166628888216789e-02  2.7772127900301261e-02  6.1175619008307209e-04  -2.5786490301751199e-02  -4.0332171255072526e-02  -4.9829851102106262e-02  -4.0474224415650926e-02  -2.1027117790956919e-02  -1.6931441201799523e-03  2.6591068722517645e-02  5.0359150856618594e-02  5.0513265750396136e-02  4.3812699185820744e-02  2.4426095582230731e-02  -5.0818503326982957e-04  -2.4371045788180980e-02  -4.5984222751832331e-02  -5.1086574771112996e-02  -4.0474224415650926e-02  -2.7307494980187415e-02  -1.0961498658603763e-03  2.3212289797331989e-02  4.2506446288266081e-02  5.1953941777274450e-02  4.3268546709685281e-02  2.4677613977174030e-02  2.8289155367710000e-03  -2.4488451939270472e-02  -4.3370934136468156e-02  -5.3414761454944039e-02  -4.3342803584430899e-02  -2.7307494980187415e-02  7.6021494438905854e-04  2.6755457380586028e-02  4.1220488589709357e-02  4.8917823535973723e-02  4.2614441530463641e-02  2.3456995247775187e-02  2.1434983009076731e-03  -2.1869026409465236e-02  -4.1601714217994121e-02  -4.8939980206914618e-02  -3.9868458066396516e-02  -2.8380568611750385e-02  7.6021494438905854e-04  2.2339566069640875e-02  4.2326788531094124e-02  4.9117764455030917e-02  4.4792557975454401e-02  2.3508381024846713e-02  1.1563736087608636e-03  -2.1604003690316832e-02  -4.2661751144174510e-02  -5.1097896611259436e-02  -3.9404232461633007e-02  -2.5507275782981096e-02  2.2129212091523794e-04  2.2339566069640875e-02  3.9596948283987875e-02  4.9824470135523380e-02  4.6500612719510892e-02  2.4926544239719895e-02  -3.5597081452207685e-03  -2.3555463288471905e-02  -4.4015992521552388e-02  -5.2829523659893352e-02  -4.4240352673674495e-02  -2.7231858087156530e-02  1.5200803838465303e-03  2.4273314138809517e-02  3.9596948283987875e-02  4.5652701353246200e-02  4.3227837001359001e-02  2.6842173787605544e-02  -7.9682803809206777e-04  -2.6926672305418804e-02  -4.6076455701123148e-02  -4.8264047439646754e-02  -4.2736373503113836e-02  -2.5214829383851573e-02  2.5466777687991498e-04  2.9948673703662779e-02  4.3226697363761515e-02  4.5652701353246200e-02  4.3553303727168341e-02  2.7173229230577450e-02  1.3987433132969908e-03  -2.5451728465225310e-02  -4.6022082925787355e-02  -5.1559049983766474e-02  -4.6253594137255355e-02  -2.0831699508709452e-02  -6.7911040492189584e-04  2.6475617754812511e-02  4.4265803534890444e-02  4.9443594843847090e-02  4.3553303727168341e-02  2.4476782651610240e-02  -1.2806555176253086e-03  -2.3245271994154350e-02  -4.1465365731160164e-02  -5.0293926975150414e-02  -4.3583552114346891e-02  -2.3622130245112082e-02  3.5557001976558195e-04  2.5414565731242778e-02  3.8162594685160645e-02  5.1390401869485153e-02  4.1766439658130011e-02  2.4476782651610240e-02  2.6111324240355146e-03  -2.2289263488810961e-02  -4.0673580900055170e-02  -5.1059757024770287e-02  -4.1966367330776105e-02  -2.3509808073037854e-02  -2.4397183160403344e-04  2.0605440429275930e-02  4.0108839670176963e-02  5.1578798298930452e-02  3.8983699984593188e-02  2.5930013069183674e-02  2.6111324240355146e-03  -2.5464056839573659e-02  -4.3216727865597722e-02  -5.2003286765370985e-02  -4.2580247973894508e-02  -2.6029494625093005e-02  -1.8626392560574793e-04  2.1830407288791535e-02  4.4928795698750024e-02  4.9945862142044745e-02  4.4709088936169095e-02  2.2814671114246829e-02  3.7551564880345715e-03  -2.5464056839573659e-02  -4.1640719242884795e-02  2.1402270119378233e-01  4.1589339196502639e-01  5.0337302467279665e-01  4.5614109884656795e-01  2.9101412792889736e-01  4.7835306083250873e-02  -2.1642727052137486e-01  -4.1805690573173188e-01  -5.0570130474983788e-01  -4.5521342461209008e-01  -2.9084088251273055e-01  -4.1640719242884795e-02  -4.7475926758147283e-02  4.1426781131192336e-01  7.6461393041735592e-01  9.0302340664246128e-01  8.1172832688461161e-01  5.0280163135122891e-01  4.7504019485273608e-02  -4.1726801841652961e-01  -7.6268697794730533e-01  -9.0238815115562931e-01  -8.0925524272396931e-01  -5.0209535785261239e-01  -4.7475926758147283e-02  -4.1693789240015100e-02  5.0062700184211406e-01  9.0105866854662309e-01  1.0675330981723634e+00  9.4949803444891856e-01  5.7461645554083196e-01  3.7607804138969914e-02  -5.0561610601585516e-01  -8.9973576175815251e-01  -1.0637295135973337e+00  -9.4680803344772713e-01  -5.7511510448211145e-01  -4.1693789240015100e-02  -2.0009208840642587e-02  4.5348981559904883e-01  8.1271717506639540e-01  9.5103888821480920e-01  8.3360827068912935e-01  4.9552923882954192e-01  2.3314097182967241e-02  -4.5619311358117043e-01  -8.1254231158687162e-01  -9.5048966439567584e-01  -8.3536496941086247e-01  -4.9923401377549936e-01  -2.0009208840642587e-02  -2.3155516194495499e-04  2.9139532919551497e-01  5.0154132275743779e-01  5.7477219422745018e-01  4.9791114723109264e-01  2.8844720209724412e-01  3.6435696749130774e-03  -2.9369103504760613e-01  -5.0483240200158253e-01  -5.7756363957065349e-01  -4.9836814829328174e-01  -2.9175209156200960e-01  -2.3155516194495499e-04  2.5297514773650491e-02  4.4718551715978896e-02  4.7237698827793426e-02  4.1341015943710153e-02  2.5473592725769951e-02  1.6461106376122029e-03  -2.2747746859582536e-02  -4.1812066308995255e-02  -4.6123459124254675e-02  -3.4390432814259776e-02  -2.0599020629042612e-02  -3.0395707573658776e-03  2.5297514773650491e-02  4.6809252627908693e-02  -2.1529599566946678e-01  -4.1848208594298025e-01  -5.0004509238917605e-01  -4.5725049945443996e-01  -2.9224941559688411e-01  -4.2132162489136905e-02  2.1547192314952091e-01  4.1951384207193404e-01  5.0375449607542999e-01  4.5539521622113249e-01  2.8802863892478775e-01  4.6809252627908693e-02  4.7283494745232559e-02  -4.1491253491897379e-01  -7.6218670284464141e-01  -9.0186072012539131e-01  -8.1180797652454151e-01  -5.0192018166309149e-01  -5.1584222917798052e-02  4.2191229053440066e-01  7.6313442200945936e-01  9.0664971454850296e-01  8.1025602947667608e-01  5.0338785271854736e-01  4.7283494745232559e-02  3.7260272267925089e-02  -5.0221543328555962e-01  -9.0573885714809432e-01  -1.0641282771850387e+00  -9.4936796782411059e-01  -5.7857301852634391e-01  -4.1669996126640109e-02  5.0326236207336938e-01  9.0304350457457128e-01  1.0675166542005785e+00  9.5501690238714887e-01  5.7747368072065364e-01  3.7260272267925089e-02  1.9364153775377844e-02  -4.5731335390222355e-01  -8.0926179587670755e-01  -9.4784988750070520e-01  -8.3775113570012616e-01  -5.0132091376969945e-01  -2.4748054349749228