<?xml version="1.0"?>
<VTKFile type="UnstructuredGrid"  version="0.1"  >
<UnstructuredGrid>
<Piece  NumberOfPoints="2197" NumberOfCells="10368">
<Points>
<DataArray  type="Float64"  NumberOfComponents="3"  format="ascii">-3.141592653589793 -3.141592653589793 -3.141592653589793  -2.617993877991494 -3.141592653589793 -3.141592653589793  -2.094395102393196 -3.141592653589793 -3.141592653589793  -1.570796326794897 -3.141592653589793 -3.141592653589793  -1.047197551196598 -3.141592653589793 -3.141592653589793  -0.5235987755982987 -3.141592653589793 -3.141592653589793  0 -3.141592653589793 -3.141592653589793  0.5235987755982987 -3.141592653589793 -3.141592653589793  1.047197551196597 -3.141592653589793 -3.141592653589793  1.570796326794897 -3.141592653589793 -3.141592653589793  2.094395102393196 -3.141592653589793 -3.141592653589793  2.617993877991494 -3.141592653589793 -3.141592653589793  3.141592653589793 -3.141592653589793 -3.141592653589793  -3.141592653589793 -2.617993877991494 -3.141592653589793  -2.617993877991494 -2.617993877991494 -3.141592653589793  -2.094395102393196 -2.617993877991494 -3.141592653589793  -1.570796326794897 -2.617993877991494 -3.141592653589793  -1.047197551196598 -2.617993877991494 -3.141592653589793  -0.5235987755982987 -2.617993877991494 -3.141592653589793  0 -2.617993877991494 -3.141592653589793  0.5235987755982987 -2.617993877991494 -3.141592653589793  1.047197551196597 -2.617993877991494 -3.141592653589793  1.570796326794897 -2.617993877991494 -3.141592653589793  2.094395102393196 -2.617993877991494 -3.141592653589793  2.617993877991494 -2.617993877991494 -3.141592653589793  3.141592653589793 -2.617993877991494 -3.141592653589793  -3.141592653589793 -2.094395102393196 -3.141592653589793  -2.617993877991494 -2.094395102393196 -3.141592653589793  -2.094395102393196 -2.094395102393196 -3.141592653589793  -1.570796326794897 -2.094395102393196 -3.141592653589793  -1.047197551196598 -2.094395102393196 -3.141592653589793  -0.5235987755982987 -2.094395102393196 -3.141592653589793  0 -2.094395102393196 -3.141592653589793  0.5235987755982987 -2.094395102393196 -3.141592653589793  1.047197551196597 -2.094395102393196 -3.141592653589793  1.570796326794897 -2.094395102393196 -3.141592653589793  2.094395102393196 -2.094395102393196 -3.141592653589793  2.617993877991494 -2.094395102393196 -3.141592653589793  3.141592653589793 -2.094395102393196 -3.141592653589793  -3.141592653589793 -1.570796326794897 -3.141592653589793  -2.617993877991494 -1.570796326794897 -3.141592653589793  -2.094395102393196 -1.570796326794897 -3.141592653589793  -1.570796326794897 -1.570796326794897 -3.141592653589793  -1.047197551196598 -1.570796326794897 -3.141592653589793  -0.5235987755982987 -1.570796326794897 -3.141592653589793  0 -1.570796326794897 -3.141592653589793  0.5235987755982987 -1.570796326794897 -3.141592653589793  1.047197551196597 -1.570796326794897 -3.141592653589793  1.570796326794897 -1.570796326794897 -3.141592653589793  2.094395102393196 -1.570796326794897 -3.141592653589793  2.617993877991494 -1.570796326794897 -3.141592653589793  3.141592653589793 -1.570796326794897 -3.141592653589793  -3.141592653589793 -1.047197551196598 -3.141592653589793  -2.617993877991494 -1.047197551196598 -3.141592653589793  -2.094395102393196 -1.047197551196598 -3.141592653589793  -1.570796326794897 -1.047197551196598 -3.141592653589793  -1.047197551196598 -1.047197551196598 -3.141592653589793  -0.5235987755982987 -1.047197551196598 -3.141592653589793  0 -1.047197551196598 -3.141592653589793  0.5235987755982987 -1.047197551196598 -3.141592653589793  1.047197551196597 -1.047197551196598 -3.141592653589793  1.570796326794897 -1.047197551196598 -3.141592653589793  2.094395102393196 -1.047197551196598 -3.141592653589793  2.617993877991494 -1.047197551196598 -3.141592653589793  3.141592653589793 -1.047197551196598 -3.141592653589793  -3.141592653589793 -0.5235987755982987 -3.141592653589793  -2.617993877991494 -0.5235987755982987 -3.141592653589793  -2.094395102393196 -0.5235987755982987 -3.141592653589793  -1.570796326794897 -0.5235987755982987 -3.141592653589793  -1.047197551196598 -0.5235987755982987 -3.141592653589793  -0.5235987755982987 -0.5235987755982987 -3.141592653589793  0 -0.5235987755982987 -3.141592653589793  0.5235987755982987 -0.5235987755982987 -3.141592653589793  1.047197551196597 -0.5235987755982987 -3.141592653589793  1.570796326794897 -0.5235987755982987 -3.141592653589793  2.094395102393196 -0.5235987755982987 -3.141592653589793  2.617993877991494 -0.5235987755982987 -3.141592653589793  3.141592653589793 -0.5235987755982987 -3.141592653589793  -3.141592653589793 0 -3.141592653589793  -2.617993877991494 0 -3.141592653589793  -2.094395102393196 0 -3.141592653589793  -1.570796326794897 0 -3.141592653589793  -1.047197551196598 0 -3.141592653589793  -0.5235987755982987 0 -3.141592653589793  0 0 -3.141592653589793  0.5235987755982987 0 -3.141592653589793  1.047197551196597 0 -3.141592653589793  1.570796326794897 0 -3.141592653589793  2.094395102393196 0 -3.141592653589793  2.617993877991494 0 -3.141592653589793  3.141592653589793 0 -3.141592653589793  -3.141592653589793 0.5235987755982987 -3.141592653589793  -2.617993877991494 0.5235987755982987 -3.141592653589793  -2.094395102393196 0.5235987755982987 -3.141592653589793  -1.570796326794897 0.5235987755982987 -3.141592653589793  -1.047197551196598 0.5235987755982987 -3.141592653589793  -0.5235987755982987 0.5235987755982987 -3.141592653589793  0 0.5235987755982987 -3.141592653589793  0.5235987755982987 0.5235987755982987 -3.141592653589793  1.047197551196597 0.5235987755982987 -3.141592653589793  1.570796326794897 0.5235987755982987 -3.141592653589793  2.094395102393196 0.5235987755982987 -3.141592653589793  2.617993877991494 0.5235987755982987 -3.141592653589793  3.141592653589793 0.5235987755982987 -3.141592653589793  -3.141592653589793 1.047197551196597 -3.141592653589793  -2.617993877991494 1.047197551196597 -3.141592653589793  -2.094395102393196 1.047197551196597 -3.141592653589793  -1.570796326794897 1.047197551196597 -3.141592653589793  -1.047197551196598 1.047197551196597 -3.141592653589793  -0.5235987755982987 1.047197551196597 -3.141592653589793  0 1.047197551196597 -3.141592653589793  0.5235987755982987 1.047197551196597 -3.141592653589793  1.047197551196597 1.047197551196597 -3.141592653589793  1.570796326794897 1.047197551196597 -3.141592653589793  2.094395102393196 1.047197551196597 -3.141592653589793  2.617993877991494 1.047197551196597 -3.141592653589793  3.141592653589793 1.047197551196597 -3.141592653589793  -3.141592653589793 1.570796326794897 -3.141592653589793  -2.617993877991494 1.570796326794897 -3.141592653589793  -2.094395102393196 1.570796326794897 -3.141592653589793  -1.570796326794897 1.570796326794897 -3.141592653589793  -1.047197551196598 1.570796326794897 -3.141592653589793  -0.5235987755982987 1.570796326794897 -3.141592653589793  0 1.570796326794897 -3.141592653589793  0.5235987755982987 1.570796326794897 -3.141592653589793  1.047197551196597 1.570796326794897 -3.141592653589793  1.570796326794897 1.570796326794897 -3.141592653589793  2.094395102393196 1.570796326794897 -3.141592653589793  2.617993877991494 1.570796326794897 -3.141592653589793  3.141592653589793 1.570796326794897 -3.141592653589793  -3.141592653589793 2.094395102393196 -3.141592653589793  -2.617993877991494 2.094395102393196 -3.141592653589793  -2.094395102393196 2.094395102393196 -3.141592653589793  -1.570796326794897 2.094395102393196 -3.141592653589793  -1.047197551196598 2.094395102393196 -3.141592653589793  -0.5235987755982987 2.094395102393196 -3.141592653589793  0 2.094395102393196 -3.141592653589793  0.5235987755982987 2.094395102393196 -3.141592653589793  1.047197551196597 2.094395102393196 -3.141592653589793  1.570796326794897 2.094395102393196 -3.141592653589793  2.094395102393196 2.094395102393196 -3.141592653589793  2.617993877991494 2.094395102393196 -3.141592653589793  3.141592653589793 2.094395102393196 -3.141592653589793  -3.141592653589793 2.617993877991494 -3.141592653589793  -2.617993877991494 2.617993877991494 -3.141592653589793  -2.094395102393196 2.617993877991494 -3.141592653589793  -1.570796326794897 2.617993877991494 -3.141592653589793  -1.047197551196598 2.617993877991494 -3.141592653589793  -0.5235987755982987 2.617993877991494 -3.141592653589793  0 2.617993877991494 -3.141592653589793  0.5235987755982987 2.617993877991494 -3.141592653589793  1.047197551196597 2.617993877991494 -3.141592653589793  1.570796326794897 2.617993877991494 -3.141592653589793  2.094395102393196 2.617993877991494 -3.141592653589793  2.617993877991494 2.617993877991494 -3.141592653589793  3.141592653589793 2.617993877991494 -3.141592653589793  -3.141592653589793 3.141592653589793 -3.141592653589793  -2.617993877991494 3.141592653589793 -3.141592653589793  -2.094395102393196 3.141592653589793 -3.141592653589793  -1.570796326794897 3.141592653589793 -3.141592653589793  -1.047197551196598 3.141592653589793 -3.141592653589793  -0.5235987755982987 3.141592653589793 -3.141592653589793  0 3.141592653589793 -3.141592653589793  0.5235987755982987 3.141592653589793 -3.141592653589793  1.047197551196597 3.141592653589793 -3.141592653589793  1.570796326794897 3.141592653589793 -3.141592653589793  2.094395102393196 3.141592653589793 -3.141592653589793  2.617993877991494 3.141592653589793 -3.141592653589793  3.141592653589793 3.141592653589793 -3.141592653589793  -3.141592653589793 -3.141592653589793 -2.617993877991494  -2.617993877991494 -3.141592653589793 -2.617993877991494  -2.094395102393196 -3.141592653589793 -2.617993877991494  -1.570796326794897 -3.141592653589793 -2.617993877991494  -1.047197551196598 -3.141592653589793 -2.617993877991494  -0.5235987755982987 -3.141592653589793 -2.617993877991494  0 -3.141592653589793 -2.617993877991494  0.5235987755982987 -3.141592653589793 -2.617993877991494  1.047197551196597 -3.141592653589793 -2.617993877991494  1.570796326794897 
[...]
<PointData  Scalars="f_79852"> 
<DataArray  type="Float64"  Name="f_79852"  format="ascii">5.7031493648335180e-02  4.5467079013186418e-02  2.0807402666221355e-02  -3.2793369300615992e-03  -1.3264167346507474e-02  -4.3137271203081862e-02  -5.6404348858643108e-02  -4.0975448102060927e-02  -2.2243324771611943e-02  -3.2389755737953223e-03  1.5321907172289375e-02  4.1531055830845917e-02  5.7031493648335180e-02  4.7158505574344166e-02  -5.2650590094596517e-01  -9.1995070441953963e-01  -1.0627029325313060e+00  -9.6894135439966445e-01  -5.9999461535491083e-01  -4.4903815439760394e-02  5.2763711047918394e-01  9.2970437181798216e-01  1.0663197366906982e+00  9.5397397494339209e-01  5.9336992844742187e-01  4.7158505574344166e-02  1.6434085803249725e-02  -9.3248838645986987e-01  -1.5687258966346962e+00  -1.8105759390834735e+00  -1.6076086267612237e+00  -9.5253119077088633e-01  -1.6104651875891763e-02  9.1483890817067304e-01  1.5695884047638267e+00  1.8095115802136030e+00  1.6124332726058213e+00  9.6950949153644761e-01  1.6434085803249725e-02  -2.6407978223644203e-04  -1.0607219944368131e+00  -1.8144484970306016e+00  -2.0807525288334578e+00  -1.8089799832336451e+00  -1.0646760884513076e+00  1.2105062496318957e-03  1.0635175071502376e+00  1.8089260108680789e+00  2.0740206554640248e+00  1.8061461961854863e+00  1.0624064969109259e+00  -2.6407978223644203e-04  -1.5544162589468051e-02  -9.5370646775145207e-01  -1.6119667911189106e+00  -1.8079559898103683e+00  -1.5706711435897120e+00  -9.3177817205892810e-01  1.7182510841722141e-02  9.7055509999207545e-01  1.6154392606523811e+00  1.8038990254242766e+00  1.5686844218343718e+00  9.1394136817962124e-01  -1.5544162589468051e-02  -4.2544526145658575e-02  -6.0122487155296633e-01  -9.6701841218088158e-01  -1.0645848261824615e+00  -9.1284496996710240e-01  -5.2530847884389442e-01  4.4972401717222520e-02  5.9907864238486064e-01  9.5083562587244497e-01  1.0659874470952961e+00  9.2922297116376096e-01  5.2600937182638774e-01  -4.2544526145658575e-02  -5.1434824019137494e-02  -4.2902836389533232e-02  -1.7766735892575408e-02  3.3689374487994885e-04  2.0169989738417850e-02  4.0477340801642503e-02  5.4280882400898976e-02  4.0573917643487604e-02  2.0569299388203809e-02  -2.7706002008460696e-03  -1.7082578702884474e-02  -4.4096681948213867e-02  -5.1434824019137494e-02  -4.4540282223496611e-02  5.2551533577400444e-01  9.2943005231413833e-01  1.0689192390840123e+00  9.5314378264310995e-01  5.9877765117539605e-01  4.1393931675354316e-02  -5.2609638216047216e-01  -9.1564537744983443e-01  -1.0649744179612770e+00  -9.6473622607047127e-01  -5.9859823224617192e-01  -4.4540282223496611e-02  -1.9167434364492791e-02  9.1725615832284324e-01  1.5710094005999435e+00  1.8066938090726214e+00  1.6143961235044315e+00  9.6581018185333023e-01  1.8469585751859505e-02  -9.3246775290827810e-01  -1.5680622612282675e+00  -1.8117294518378477e+00  -1.6075007111304256e+00  -9.5188505846823535e-01  -1.9167434364492791e-02  9.8982640314434090e-04  1.0669309806234912e+00  1.8100501026279185e+00  2.0797789113601994e+00  1.8122049658776107e+00  1.0580519737609786e+00  1.1046470231407786e-03  -1.0659352372661139e+00  -1.8095687902397326e+00  -2.0774764324795663e+00  -1.8097084747337344e+00  -1.0657228218778214e+00  9.8982640314434090e-04  1.5421642239969554e-02  9.6688091928512176e-01  1.6148927566728315e+00  1.8049022338521175e+00  1.5670747239544813e+00  9.1752654315460636e-01  -2.0734271670021620e-02  -9.5449555320745494e-01  -1.6024022002119087e+00  -1.8097957998381951e+00  -1.5669201065516738e+00  -9.2757139345145034e-01  1.5421642239969554e-02  4.0226537418641878e-02  6.0052927159376757e-01  9.5406412993431322e-01  1.0633408965880864e+00  9.3291293047584323e-01  5.2966922308867992e-01  -4.6212373875460698e-02  -5.9667894999354698e-01  -9.6717042148804833e-01  -1.0650174300844453e+00  -9.1534870195525964e-01  -5.2566333096386220e-01  4.0226537418641878e-02  5.7031493648335180e-02  4.5467079013186418e-02  2.0807402666221355e-02  -3.2793369300615992e-03  -1.3264167346507474e-02  -4.3137271203081862e-02  -5.6404348858643108e-02  -4.0975448102060927e-02  -2.2243324771611943e-02  -3.2389755737953223e-03  1.5321907172289375e-02  4.1531055830845917e-02  5.7031493648335180e-02  4.9444419721145424e-02  2.2182581106036114e-02  -3.0973676498594433e-03  -2.1031913613285123e-02  -3.6071930563080119e-02  -5.2937125025913100e-02  -4.3105604708302096e-02  -2.5549962494935758e-02  7.0579673665847227e-03  2.3379256510273640e-02  4.2072006018093480e-02  5.4358824232180830e-02  4.9444419721145424e-02  1.9415713743629465e-02  -4.7275935319921580e-01  -8.1605164063477575e-01  -9.4938270927575141e-01  -8.5288403603860086e-01  -5.1027487347463774e-01  -2.7628655765047857e-02  4.7303714275455955e-01  8.1643138638067458e-01  9.4414995755924369e-01  8.4151670240631682e-01  5.1240678713119792e-01  1.9415713743629465e-02  -5.3078990201173770e-03  -8.1897429042298453e-01  -1.3851858950467171e+00  -1.5961299314324027e+00  -1.3974796152028293e+00  -8.1066246571379996e-01  5.1244523671041724e-03  8.1246755619876021e-01  1.3846360769595343e+00  1.5923839565009119e+00  1.3995148005332911e+00  8.2334519017668784e-01  -5.3078990201173770e-03  -2.3462428884311621e-02  -9.4625061052358894e-01  -1.5914432323032002e+00  -1.8125004585873266e+00  -1.5719164758152877e+00  -9.0761457900335030e-01  2.3339030753157495e-02  9.4801237970063934e-01  1.5967781825602791e+00  1.8139725888852833e+00  1.5630105451765106e+00  9.0491160864160891e-01  -2.3462428884311621e-02  -4.2110374751690036e-02  -8.4568301933426537e-01  -1.3996213843564604e+00  -1.5630328733141261e+00  -1.3528539820945029e+00  -7.8322045027316034e-01  3.9585599650918638e-02  8.5085407489071030e-01  1.3932269984572840e+00  1.5637059466566163e+00  1.3480511352532960e+00  7.7383483443932299e-01  -4.2110374751690036e-02  -5.1647168642306236e-02  -5.1368467734150358e-01  -8.1973715777445355e-01  -9.0733815738855894e-01  -7.7201407215617035e-01  -4.2664243834127702e-01  5.3381503698275344e-02  5.1175635721594270e-01  8.1184084198138018e-01  9.1167832177178787e-01  7.8513024315004898e-01  4.2547798025706118e-01  -5.1647168642306236e-02  -4.8351846636018665e-02  -2.0173119035500113e-02  3.9286905147426368e-03  2.5429124292275080e-02  4.1191361245751283e-02  5.2815644496711334e-02  4.6679380004989258e-02  2.4295315370742310e-02  -2.3263259338618990e-03  -2.2678570032632794e-02  -3.9866264197254794e-02  -5.1819222494614452e-02  -4.8351846636018665e-02  -2.6192600960079977e-02  4.6865272794359092e-01  8.1900497297848418e-01  9.4367499639737695e-01  8.4655794499045156e-01  5.1261804397742861e-01  2.2080060195813201e-02  -4.7317900473664487e-01  -8.1304664793552284e-01  -9.4742625499570432e-01  -8.5187532846926395e-01  -5.1341894735582250e-01  -2.6192600960079977e-02  7.7359093555849912e-03  8.1531733320804978e-01  1.3819488034607015e+00  1.5951913751353874e+00  1.3998829477229668e+00  8.2318767208337174e-01  -9.8516517970033083e-03  -8.1570371869162639e-01  -1.3829115933458629e+00  -1.5970429507686092e+00  -1.3897472467167014e+00  -8.0974153748570354e-01  7.7359093555849912e-03  1.9477912662223922e-02  9.5132381746406713e-01  1.5955103043052747e+00  1.8162607927298631e+00  1.5582948299169312e+00  9.0745456397717550e-01  -2.5837963923278497e-02  -9.4745791047647432e-01  -1.5910747529720715e+00  -1.8132335791130276e+00  -1.5706184208112635e+00  -9.0792147617029129e-01  1.9477912662223922e-02  4.2127779092597954e-02  8.5105418563859392e-01  1.3960612191484547e+00  1.5659151849121815e+00  1.3517152929481939e+00  7.7652231325886911e-01  -4.5690973783563765e-02  -8.4343961418239877e-01  -1.3965694475571937e+00  -1.5670221922019880e+00  -1.3506926935655561e+00  -7.8853775289168127e-01  4.2127779092597954e-02  5.5904737936789038e-02  5.1778356759279109e-01  8.0561498368116591e-01  9.1029372932085073e-01  7.8534913084186975e-01  4.2422233920050390e-01  -4.6464103377859355e-02  -5.1527269774026341e-01  -8.1518087123717697e-01  -9.0433511105075715e-01  -7.7477616303540431e-01  -4.2778241942015532e-01  5.5904737936789038e-02  4.9444419721145424e-02  2.2182581106036114e-02  -3.0973676498594433e-03  -2.1031913613285123e-02  -3.6071930563080119e-02  -5.2937125025913100e-02  -4.3105604708302096e-02  -2.5549962494935758e-02  7.0579673665847227e-03  2.3379256510273640e-02  4.2072006018093480e-02  5.4358824232180830e-02  4.9444419721145424e-02  2.2368493583776718e-02  2.0097112405254134e-03  -2.1595454074527135e-02  -4.2060485412235622e-02  -4.8226989368021639e-02  -4.6288764235441190e-02  -2.5026223147381749e-02  2.2435697627120384e-03  2.5865114061674268e-02  3.7996337734144750e-02  4.7012062115348051e-02  3.7324072149714276e-02  2.2368493583776718e-02  4.4109814266996656e-03  -2.9338171637844207e-01  -4.9866236350595328e-01  -5.7950044466745132e-01  -4.9918689337452093e-01  -2.9720623427388576e-01  2.0602162243679475e-03  2.8842280206931792e-01  4.9899603185523728e-01  5.7920930633062251e-01  5.0462915417939636e-01  2.9106295144598981e-01  4.4109814266996656e-03  -2.2985128138653169e-02  -5.0065255779941786e-01  -8.3815221791994332e-01  -9.4938654410350287e-01  -8.1226085353241606e-01  -4.5488608089969196e-01  1.8967455659595050e-02  5.0350395466497655e-01  8.3613301792342698e-01  9.4819307818455811e-01  8.1145436148233208e-01  4.5291551881186232e-01  -2.2985128138653169e-02  -4.0759551328712632e-02  -5.7661828729285225e-01  -9.4887746015460761e-01  -1.0642108180225756e+00  -9.0224655341877613e-01  -5.0530614144246055e-01  4.1644375589388348e-02  5.7832028481202458e-01  9.5116485436091991e-01  1.0612143658226636e+00  9.0322444166277038e-01  5.0371278005635356e-01  -4.0759551328712632e-02  -4.9712893547556120e-02  -5.0413545257315440e-01  -8.1138084926388943e-01  -9.0307730059069491e-01  -7.6325469827585002e-01  -4.1443232067211100e-01  5.1455636835215555e-02  5.0260028188999317e-01  8.1314115177565116e-01  9.0128384196836586e-01  7.6037680360328508e-01  4.1804993872941681e-01  -4.9712893547556120e-02  -4.1755741402848108e-02  -2.9165077265957778e-01  -4.5708526112148040e-01  -5.0002611771746219e-01  -4.1519874903013693e-01  -2.1146492227624838e-01  4.5690308531944633e-02  2.9478568241605435e-01  4.5433970258236483e-01  5.0430621110717322e-01  4.1483826929156703e-01  2.1434301017028573e-01  -4.1755741402848108e-02  -2.7215126454433112e-02  1.1135318546580874e-03  2.3417300917464488e-02  4.1424775768657746e-02  4.8947375701122557e-02  4.3053844042942206e-02  2.5822544942911654e-02  -1.2991289515596888e-03  -2.3495069218256271e-02  -4.2285654870085461e-02  -4.9398432371945716e-02  -4.5304453696875961e-02  -2.7215126454433112e-02  7.4249822939799286e-04  2.8809926842739730e-01  4.9736341918072496e-01  5.8001983452673445e-01  5.0620044660573238e-01  2.9305584101863458e-01  1.5378627588624534e-03  -2.8955021279755783e-01  -5.0163504586611884e-01  -5.7440392214625036e-01  -5.0116097759306177e-01  -2.9447730542225914e-01  7.4249822939799286e-04  2.2969239189953517e-02  4.9533344287631687e-01  8.3788193242076503e-01  9.4698011413916461e-01  8.0947224251400163e-01  4.5213284447400348e-01  -2.4198603584918980e-02  -5.0179962626504837e-01  -8.3627060710419032e-01  -9.4824948967401768e-01  -8.0930677810636198e-01  -4.5404815922284814e-01  2.2969239189953517e-02  4.2838199145505858e-02  5.7658423890263732e-01  9.4936265316311041e-01  1.0656296661197937e+00  9.0174103251849891e-01  5.0206058654388952e-01  -4.5135322020374312e-02  -5.7928582284760877e-01  -9.4734096844975213e-01  -1.0636458291257131e+00  -9.0084937905675655e-01  -5.0639804192485582e-01  4.2838199145505858e-02  4.8681532562892517e-02  5.0323472111416656e-01  8.1126590522241027e-01  9.0175929854936610e-01  7.6766086557535906e-01  4.1469972018705942e-01  -5.0457841670048804e-02  -5.0102497718726835e-01  -8.1058035654926863e-01  -9.0237436176849273e-01  -7.6329860699330343e-01  -4.1599866691269671e-01  4.8681532562892517e-02  4.8744851951361683e-02  2.8996124597248474e-01  4.5651900784781635e-01  5.0584380359888459e-01  4.1326101861331999e-01  2.1519210055540597e-01  -3.8598342361754696e-02  -2.9075675743558721e-01  -4.5653536885973273e-01  -5.0076177599299554e-01  -4.1497143918323542e-01  -2.1711595691575977e-01  4.8744851951361683e-02  2.2368493583776718e-02  2.0097112405254134e-03  -2.1595454074527135e-02  -4.2060485412235622e-02  -4.8226989368021639e-02  -4.6288764235441190e-02  -2.5026223147381749e-02  2.2435697627120384e-03  2.5865114061674268e-02  3.7996337734144750e-02  4.7012062115348051e-02  3.7324072149714276e-02  2.2368493583776718e-02  2.7315077229519715e-03  -2.2136613565586948e-02  -4.0517374123552274e-02  -5.1007640159976886e-02  -4.1860641802441194e-02  -2.3408847267118726e-02  -2.4970877059972765e-04  2.0342010960195857e-02  3.9924061556046511e-02  5.1619773556703365e-02  3.8750913407866433e-02  2.5926274888646468e-02  2.7315077229519715e-03  -2.3389311641857407e-02  -4.3849504528053425e-02  -5.3863519234262275e-02  -4.5653636665875116e-02  -2.5664865959742076e-02  -1.0932810721184048e-03  2.3999222665659146e-02  4.5312010760184859e-02  5.2494094361771951e-02  3.9983083366348968e-02  2.3298166060445772e-02  3.4833235940336243e-03  -2.3389311641857407e-02  -4.2740724269790580e-02  -5.0725149811557638e-02  -4.4936293127371234e-02  -2.7878758002608323e-02  -6.0460657549779985e-04  2.1368307363162767e-02  4.3597467825687228e-02  4.5748441421464732e-02  4.6860252156634995e-02  2.9141354692006089e-02  -8.4582379312095248e-04  -2.0596187715142409e-02  -4.2740724269790580e-02  -4.9787333131448987e-02  -4.2793132185250556e-02  -2.7718424571639491e-02  -2.1559956300585344e-03  2.7319542241158741e-02  4.5432294789467538e-02  4.6978094809275436e-02  4.2168712604115824e-02  2.8034781333540666e-02  6.5097954927022424e-04  -2.5963981101996391e-02  -4.0271949938482030e-02  -4.9787333131448987e-02  -4.0306140037376689e-02  -2.0765313881585590e-02  -1.7778251082140280e-03  2.6802473532485875e-02  5.0930325376948658e-02  5.0593113426024502e-02  4.3788201822892045e-02  2.4448403022604780e-02  -5.4709411571604539e-04  -2.4483577155821765e-02  -4.6352910735158348e-02  -5.1269395108808527e-02  -4.0306140037376689e-02  -2.7357707927788692e-02  -1.1555534955197358e-03  2.3057980078714988e-02  4.2532678631424507e-02  5.2190604106113897e-02  4.3314264260546922e-02  2.4658619273903681e-02  2.9405174052806594e-03  -2.4492405576875532e-02  -4.3425371292033478e-02  -5.3634472998114302e-02  -4.3395778708210521e-02  -2.7357707927788692e-02  8.0101704153482636e-04  2.6775760610758093e-02  4.1104270561598745e-02  4.8827920911874149e-02  4.2555789988426129e-02  2.3347153807478996e-02  2.2314460099667429e-03  -2.1675604290939888e-02  -4.1507433296316711e-02  -4.8751386367769357e-02  -3.9673698046779511e-02  -2.8515606942964566e-02  8.0101704153482636e-04  2.2194390542123677e-02  4.2324074322533586e-02  4.9263820542458363e-02  4.4896783447812977e-02  2.3366941088769255e-02  1.2145232397015350e-03  -2.1406683000952453e-02  -4.2686880332623314e-02  -5.1202758568588858e-02  -3.9260572154921063e-02  -2.5578820554335378e-02  2.3972575877464423e-04  2.2194390542123677e-02  3.9366111812144937e-02  4.9895499324836071e-02  4.6862359475259519e-02  2.5064745943858550e-02  -3.7132140874294554e-03  -2.3413854359115027e-02  -4.4034563808094375e-02  -5.3104101094693212e-02  -4.4501920807061723e-02  -2.7485649114827551e-02  1.5944281741451561e-03  2.4273142984114277e-02  3.9366111812144937e-02  4.5332160003814126e-02  4.3275961810809248e-02  2.7068443314183378e-02  -8.3920048702263708e-04  -2.7166858136075934e-02  -4.6275507853998657e-02  -4.8136063404077133e-02  -4.2763531854446611e-02  -2.5354089185917736e-02  2.5391553680268088e-04  3.0343053815304506e-02  4.3258119752889873e-02  4.5332160003814126e-02  4.3532845814524088e-02  2.7313732613043797e-02  1.4726438404756364e-03  -2.5614713502304598e-02  -4.6356960459226160e-02  -5.1783574024655471e-02  -4.6391412322595547e-02  -2.0547853245566149e-02  -7.3176763588656273e-04  2.6665339536373980e-02  4.4526803424244213e-02  4.9475098585079258e-02  4.3532845814524088e-02  2.4438517929821973e-02  -1.3449844635128893e-03  -2.3191765048604884e-02  -4.1410878998574985e-02  -5.0385639696935540e-02  -4.3666054266754475e-02  -2.3491496877109913e-02  3.5427802343223350e-04  2.5382848273444832e-02  3.7951302937826531e-02  5.1632889558818354e-02  4.1746572816952515e-02  2.4438517929821973e-02  2.7315077229519715e-03  -2.2136613565586948e-02  -4.0517374123552274e-02  -5.1007640159976886e-02  -4.1860641802441194e-02  -2.3408847267118726e-02  -2.4970877059972765e-04  2.0342010960195857e-02  3.9924061556046511e-02  5.1619773556703365e-02  3.8750913407866433e-02  2.5926274888646468e-02  2.7315077229519715e-03  -2.5496562224460735e-02  -4.3444231089194110e-02  -5.2110610178277506e-02  -4.2374562585608400e-02  -2.6044448438833030e-02  -1.3609834997490295e-04  2.1708958573687518e-02  4.5053273565920350e-02  4.9995287317974660e-02  4.4700850909173633e-02  2.2726703599709554e-02  3.9582219695543921e-03  -2.5496562224460735e-02  -4.1584914153450496e-02  2.1417441685953045e-01  4.1658756842416816e-01  5.0398902591219796e-01  4.5632076992276621e-01  2.9144309937698942e-01  4.8259928584942262e-02  -2.1670004305647317e-01  -4.1883410319301817e-01  -5.0633404266812210e-01  -4.5546858641651938e-01  -2.9135325812616203e-01  -4.1584914153450496e-02  -4.7366558371450714e-02  4.1477972619531606e-01  7.6513120849161154e-01  9.0280070175543636e-01  8.1194491208764830e-01  5.0349009339285522e-01  4.7415519982072378e-02  -4.1802934619243998e-01  -7.6308218164791330e-01  -9.0217280231982167e-01  -8.0944918561850132e-01  -5.0283691244472650e-01  -4.7366558371450714e-02  -4.1639232949447949e-02  5.0106480746211179e-01  9.0076361896530810e-01  1.0671859917144049e+00  9.4971539906891667e-01  5.7501173962733954e-01  3.7148390183750872e-02  -5.0629947831122002e-01  -8.9937771244508502e-01  -1.0632093286127542e+00  -9.4690436706184022e-01  -5.7552852538425725e-01  -4.1639232949447949e-02  -1.9771718451693475e-02  4.5369879454399253e-01  8.1307094073652075e-01  9.5132221029957220e-01  8.3369570989735564e-01  4.9572745773254018e-01  2.3157325663278473e-02  -4.5634656608826352e-01  -8.1280483071158582e-01  -9.5076209233209497e-01  -8.3554981002843154e-01  -4.9962310689087092e-01  -1.9771718451693475e-02  -2.8163135133642481e-04  2.9192940991697203e-01  5.0228640915332956e-01  5.7517283483525172e-01  4.9825476132915586e-01  2.8877669430783309e-01  3.7668969490552507e-03  -2.9421514825559641e-01  -5.0567087489566220e-01  -5.7807596981056875e-01  -4.9863775619971568e-01  -2.9228983115557539e-01  -2.8163135133642481e-04  2.5317071420958202e-02  4.4835332301166764e-02  4.7094743827830979e-02  4.1234917430888966e-02  2.5541109496085845e-02  1.7100624355790614e-03  -2.2612522225460403e-02  -4.2054113702367536e-02  -4.5834151433768816e-02  -3.3837836123731597e-02  -2.0297259677750791e-02  -3.1200296743067769e-03  2.5317071420958202e-02  4.7185494078755871e-02  -2.1553508590516093e-01  -4.1921843391014002e-01  -5.0045430280771919e-01  -4.5758882696202180e-01  -2.9280468441323920e-01  -4.2171738801270134e-02  2.1582619168897918e-01  4.2029843051266175e-01  5.0444316580495230e-01  4.5552896352607297e-01  2.8827352604134221e-01  4.7185494078755871e-02  4.7160800045507101e-02  -4.1551440874722539e-01  -7.6255910547539518e-01  -9.0164654228694541e-01  -8.1214411212198823e-01  -5.0269846588646194e-01  -5.1618321167751828e-02  4.2278841241168363e-01  7.6359054262716197e-01  9.0659129010561212e-01  8.1037759540798993e-01  5.0409787842377163e-01  4.7160800045507101e-02  3.6829742840689642e-02  -5.0277746451968253e-01  -9.0566394584909005e-01  -1.0635969426368548e+00  -9.4960333864654700e-01  -5.7919418305075143e-01  -4.1568073596968028e-02  5.0376479394608242e-01  9.0283518057466927e-01  1.0671895474104045e+00  9.5549017005743131e-01  5.7801296033637073e-01  3.6829742840689642e-02  1.9026513437848145e-02  -4.5754252854533056e-01  -8.0936337601051866e-01  -9.4796845597406088e-01  -8.3801321457252875e-01  -5.0181559967355271e-01  -2.4732489435382934