<?xml version="1.0"?>
<VTKFile type="UnstructuredGrid"  version="0.1"  >
<UnstructuredGrid>
<Piece  NumberOfPoints="9261" NumberOfCells="48000">
<Points>
<DataArray  type="Float64"  NumberOfComponents="3"  format="ascii">-3.141592653589793 -3.141592653589793 -3.141592653589793  -2.827433388230814 -3.141592653589793 -3.141592653589793  -2.513274122871834 -3.141592653589793 -3.141592653589793  -2.199114857512855 -3.141592653589793 -3.141592653589793  -1.884955592153876 -3.141592653589793 -3.141592653589793  -1.570796326794897 -3.141592653589793 -3.141592653589793  -1.256637061435917 -3.141592653589793 -3.141592653589793  -0.9424777960769379 -3.141592653589793 -3.141592653589793  -0.6283185307179586 -3.141592653589793 -3.141592653589793  -0.3141592653589793 -3.141592653589793 -3.141592653589793  0 -3.141592653589793 -3.141592653589793  0.3141592653589789 -3.141592653589793 -3.141592653589793  0.6283185307179586 -3.141592653589793 -3.141592653589793  0.9424777960769379 -3.141592653589793 -3.141592653589793  1.256637061435917 -3.141592653589793 -3.141592653589793  1.570796326794897 -3.141592653589793 -3.141592653589793  1.884955592153876 -3.141592653589793 -3.141592653589793  2.199114857512855 -3.141592653589793 -3.141592653589793  2.513274122871834 -3.141592653589793 -3.141592653589793  2.827433388230814 -3.141592653589793 -3.141592653589793  3.141592653589793 -3.141592653589793 -3.141592653589793  -3.141592653589793 -2.827433388230814 -3.141592653589793  -2.827433388230814 -2.827433388230814 -3.141592653589793  -2.513274122871834 -2.827433388230814 -3.141592653589793  -2.199114857512855 -2.827433388230814 -3.141592653589793  -1.884955592153876 -2.827433388230814 -3.141592653589793  -1.570796326794897 -2.827433388230814 -3.141592653589793  -1.256637061435917 -2.827433388230814 -3.141592653589793  -0.9424777960769379 -2.827433388230814 -3.141592653589793  -0.6283185307179586 -2.827433388230814 -3.141592653589793  -0.3141592653589793 -2.827433388230814 -3.141592653589793  0 -2.827433388230814 -3.141592653589793  0.3141592653589789 -2.827433388230814 -3.141592653589793  0.6283185307179586 -2.827433388230814 -3.141592653589793  0.9424777960769379 -2.827433388230814 -3.141592653589793  1.256637061435917 -2.827433388230814 -3.141592653589793  1.570796326794897 -2.827433388230814 -3.141592653589793  1.884955592153876 -2.827433388230814 -3.141592653589793  2.199114857512855 -2.827433388230814 -3.141592653589793  2.513274122871834 -2.827433388230814 -3.141592653589793  2.827433388230814 -2.827433388230814 -3.141592653589793  3.141592653589793 -2.827433388230814 -3.141592653589793  -3.141592653589793 -2.513274122871834 -3.141592653589793  -2.827433388230814 -2.513274122871834 -3.141592653589793  -2.513274122871834 -2.513274122871834 -3.141592653589793  -2.199114857512855 -2.513274122871834 -3.141592653589793  -1.884955592153876 -2.513274122871834 -3.141592653589793  -1.570796326794897 -2.513274122871834 -3.141592653589793  -1.256637061435917 -2.513274122871834 -3.141592653589793  -0.9424777960769379 -2.513274122871834 -3.141592653589793  -0.6283185307179586 -2.513274122871834 -3.141592653589793  -0.3141592653589793 -2.513274122871834 -3.141592653589793  0 -2.513274122871834 -3.141592653589793  0.3141592653589789 -2.513274122871834 -3.141592653589793  0.6283185307179586 -2.513274122871834 -3.141592653589793  0.9424777960769379 -2.513274122871834 -3.141592653589793  1.256637061435917 -2.513274122871834 -3.141592653589793  1.570796326794897 -2.513274122871834 -3.141592653589793  1.884955592153876 -2.513274122871834 -3.141592653589793  2.199114857512855 -2.513274122871834 -3.141592653589793  2.513274122871834 -2.513274122871834 -3.141592653589793  2.827433388230814 -2.513274122871834 -3.141592653589793  3.141592653589793 -2.513274122871834 -3.141592653589793  -3.141592653589793 -2.199114857512855 -3.141592653589793  -2.827433388230814 -2.199114857512855 -3.141592653589793  -2.513274122871834 -2.199114857512855 -3.141592653589793  -2.199114857512855 -2.199114857512855 -3.141592653589793  -1.884955592153876 -2.199114857512855 -3.141592653589793  -1.570796326794897 -2.199114857512855 -3.141592653589793  -1.256637061435917 -2.199114857512855 -3.141592653589793  -0.9424777960769379 -2.199114857512855 -3.141592653589793  -0.6283185307179586 -2.199114857512855 -3.141592653589793  -0.3141592653589793 -2.199114857512855 -3.141592653589793  0 -2.199114857512855 -3.141592653589793  0.3141592653589789 -2.199114857512855 -3.141592653589793  0.6283185307179586 -2.199114857512855 -3.141592653589793  0.9424777960769379 -2.199114857512855 -3.141592653589793  1.256637061435917 -2.199114857512855 -3.141592653589793  1.570796326794897 -2.199114857512855 -3.141592653589793  1.884955592153876 -2.199114857512855 -3.141592653589793  2.199114857512855 -2.199114857512855 -3.141592653589793  2.513274122871834 -2.199114857512855 -3.141592653589793  2.827433388230814 -2.199114857512855 -3.141592653589793  3.141592653589793 -2.199114857512855 -3.141592653589793  -3.141592653589793 -1.884955592153876 -3.141592653589793  -2.827433388230814 -1.884955592153876 -3.141592653589793  -2.513274122871834 -1.884955592153876 -3.141592653589793  -2.199114857512855 -1.884955592153876 -3.141592653589793  -1.884955592153876 -1.884955592153876 -3.141592653589793  -1.570796326794897 -1.884955592153876 -3.141592653589793  -1.256637061435917 -1.884955592153876 -3.141592653589793  -0.9424777960769379 -1.884955592153876 -3.141592653589793  -0.6283185307179586 -1.884955592153876 -3.141592653589793  -0.3141592653589793 -1.884955592153876 -3.141592653589793  0 -1.884955592153876 -3.141592653589793  0.3141592653589789 -1.884955592153876 -3.141592653589793  0.6283185307179586 -1.884955592153876 -3.141592653589793  0.9424777960769379 -1.884955592153876 -3.141592653589793  1.256637061435917 -1.884955592153876 -3.141592653589793  1.570796326794897 -1.884955592153876 -3.141592653589793  1.884955592153876 -1.884955592153876 -3.141592653589793  2.199114857512855 -1.884955592153876 -3.141592653589793  2.513274122871834 -1.884955592153876 -3.141592653589793  2.827433388230814 -1.884955592153876 -3.141592653589793  3.141592653589793 -1.884955592153876 -3.141592653589793  -3.141592653589793 -1.570796326794897 -3.141592653589793  -2.827433388230814 -1.570796326794897 -3.141592653589793  -2.513274122871834 -1.570796326794897 -3.141592653589793  -2.199114857512855 -1.570796326794897 -3.141592653589793  -1.884955592153876 -1.570796326794897 -3.141592653589793  -1.570796326794897 -1.570796326794897 -3.141592653589793  -1.256637061435917 -1.570796326794897 -3.141592653589793  -0.9424777960769379 -1.570796326794897 -3.141592653589793  -0.6283185307179586 -1.570796326794897 -3.141592653589793  -0.3141592653589793 -1.570796326794897 -3.141592653589793  0 -1.570796326794897 -3.141592653589793  0.3141592653589789 -1.570796326794897 -3.141592653589793  0.6283185307179586 -1.570796326794897 -3.141592653589793  0.9424777960769379 -1.570796326794897 -3.141592653589793  1.256637061435917 -1.570796326794897 -3.141592653589793  1.570796326794897 -1.570796326794897 -3.141592653589793  1.884955592153876 -1.570796326794897 -3.141592653589793  2.199114857512855 -1.570796326794897 -3.141592653589793  2.513274122871834 -1.570796326794897 -3.141592653589793  2.827433388230814 -1.570796326794897 -3.141592653589793  3.141592653589793 -1.570796326794897 -3.141592653589793  -3.141592653589793 -1.256637061435917 -3.141592653589793  -2.827433388230814 -1.256637061435917 -3.141592653589793  -2.513274122871834 -1.256637061435917 -3.141592653589793  -2.199114857512855 -1.256637061435917 -3.141592653589793  -1.884955592153876 -1.256637061435917 -3.141592653589793  -1.570796326794897 -1.256637061435917 -3.141592653589793  -1.256637061435917 -1.256637061435917 -3.141592653589793  -0.9424777960769379 -1.256637061435917 -3.141592653589793  -0.6283185307179586 -1.256637061435917 -3.141592653589793  -0.3141592653589793 -1.256637061435917 -3.141592653589793  0 -1.256637061435917 -3.141592653589793  0.3141592653589789 -1.256637061435917 -3.141592653589793  0.6283185307179586 -1.256637061435917 -3.141592653589793  0.9424777960769379 -1.256637061435917 -3.141592653589793  1.256637061435917 -1.256637061435917 -3.141592653589793  1.570796326794897 -1.256637061435917 -3.141592653589793  1.884955592153876 -1.256637061435917 -3.141592653589793  2.199114857512855 -1.256637061435917 -3.141592653589793  2.513274122871834 -1.256637061435917 -3.141592653589793  2.827433388230814 -1.256637061435917 -3.141592653589793  3.141592653589793 -1.256637061435917 -3.141592653589793  -3.141592653589793 -0.9424777960769379 -3.141592653589793  -2.827433388230814 -0.9424777960769379 -3.141592653589793  -2.513274122871834 -0.9424777960769379 -3.141592653589793  -2.199114857512855 -0.9424777960769379 -3.141592653589793  -1.884955592153876 -0.9424777960769379 -3.141592653589793  -1.570796326794897 -0.9424777960769379 -3.141592653589793  -1.256637061435917 -0.9424777960769379 -3.141592653589793  -0.9424777960769379 -0.9424777960769379 -3.141592653589793  -0.6283185307179586 -0.9424777960769379 -3.141592653589793  -0.3141592653589793 -0.9424777960769379 -3.141592653589793  0 -0.9424777960769379 -3.141592653589793  0.3141592653589789 -0.9424777960769379 -3.141592653589793  0.6283185307179586 -0.9424777960769379 -3.141592653589793  0.9424777960769379 -0.9424777960769379 -3.141592653589793  1.256637061435917 -0.9424777960769379 -3.141592653589793  1.570796326794897 -0.9424777960769379 -3.141592653589793  1.884955592153876 -0.9424777960769379 -3.141592653589793  2.199114857512855 -0.9424777960769379 -3.141592653589793  2.513274122871834 -0.9424777960769379 -3.141592653589793  2.827433388230814 -0.9424777960769379 -3.141592653589793  3.141592653589793 -0.9424777960769379 -3.141592653589793  -3.141592653589793 -0.6283185307179586 -3.141592653589793  -2.827433388230814 -0.6283185307179586 -3.141592653589793  -2.513274122871834 -0.6283185307179586 -3.141592653589793  -2.19
[...]
<PointData  Scalars="f_33596"> 
<DataArray  type="Float64"  Name="f_33596"  format="ascii">8.0100042655311635e-02  6.3609198163124547e-02  -5.8494306414217365e-02  -4.1920502511664744e-02  4.3075309999820203e-03  3.8632524170941054e-02  5.6222528727103011e-02  5.4920310421415187e-02  2.8170311472526546e-02  -3.2162370214554287e-02  -8.0305975850857053e-02  -3.2633688451949125e-02  2.7463346633288137e-02  5.3971365324757499e-02  5.5168741279011273e-02  3.7564645606291358e-02  3.2225970297997783e-03  -4.3045470610488600e-02  -5.9361917197267557e-02  6.3175330722241532e-02  8.0100042655311635e-02  3.2031050609118067e-02  -2.7431486888445927e-01  -5.9165413145502754e-01  -6.6207989102532572e-01  -5.3442229650692030e-01  -4.2189749600485332e-01  -3.5940449127641433e-01  -3.4185696681824373e-01  -3.8673995063675937e-01  -3.6689977023384307e-01  -6.2930717620335225e-02  2.7429557903239921e-01  3.3457744636953868e-01  3.4214651483519815e-01  3.6020050112479496e-01  4.1664830430664312e-01  5.1740839210674339e-01  6.2053279395487093e-01  5.5057232831396963e-01  3.6682957884236561e-01  3.2031050609118067e-02  -2.8130196870561078e-02  -3.3499681329737746e-01  -5.6082371163018763e-01  -5.9434552297765564e-01  -3.8310751740260801e-01  -2.6255953822707545e-01  -2.2476457576244360e-01  -3.0332365631288299e-01  -6.4095561254306521e-01  -5.5028525836720887e-01  6.0290357756476259e-02  5.9202454838711627e-01  5.5966111967155874e-01  3.2594410138306135e-01  2.5021026712064165e-01  3.0934929998417982e-01  4.5069972932707636e-01  6.7072044019675836e-01  6.4006044818794205e-01  3.8650440641051431e-01  -2.8130196870561078e-02  -5.4470626939032138e-02  -3.4249976145577898e-01  -3.2687088920270618e-01  -2.0126348925290466e-01  -1.3961366462575006e-01  -1.7918573441967042e-01  -1.1701558618646662e-01  -1.4201407260865292e-01  -6.7168987462599061e-01  -6.1997554569107494e-01  4.3826341290093274e-02  6.6281188842536276e-01  5.9326490465152415e-01  2.0096882437047109e-01  1.2698537590823300e-01  1.4977628717697730e-01  1.3401337722077339e-01  1.4145984970635936e-01  3.0195529590679421e-01  3.4187807213119165e-01  -5.4470626939032138e-02  -5.5269888229526797e-02  -3.6046993173308001e-01  -2.5079373830838736e-01  -1.2690950978434881e-01  -1.8381396959163881e-01  -2.0422270177870602e-01  -1.5329767720723567e-01  -1.3416826093311587e-01  -4.5123864114358475e-01  -5.1682582094343643e-01  -2.6191125947637121e-03  5.3514369612085833e-01  3.8221897137404509e-01  1.3985287224890580e-01  1.8388557242739667e-01  1.7037780017761159e-01  1.5344949345448891e-01  1.1726324056213129e-01  2.2359753879506769e-01  3.5973778788419591e-01  -5.5269888229526797e-02  -3.7253791053934178e-02  -4.1674335846283189e-01  -3.1021220909346775e-01  -1.4980589884795684e-01  -1.7047837920635303e-01  -1.4875740491739373e-01  -1.7050642322281831e-01  -1.4959396088785432e-01  -3.0961750262539695e-01  -4.1640866547713956e-01  -3.7154385017432116e-02  4.2245419492788422e-01  2.6152384887507657e-01  1.7955121082150810e-01  2.0436971680236754e-01  1.4871547747990999e-01  2.0451810421741859e-01  1.7937895959375055e-01  2.6132832891354235e-01  4.2235866130499866e-01  -3.7253791053934178e-02  -2.3716991302213586e-03  -5.1718215040689552e-01  -4.5236451783346537e-01  -1.3410373189766070e-01  -1.5343650624491945e-01  -2.0455042172082316e-01  -1.8350720433641643e-01  -1.2653812360019201e-01  -2.5036433986160761e-01  -3.6007765813987869e-01  -5.4959036611117840e-02  3.5982521393357164e-01  2.2356325265879026e-01  1.1711794759417536e-01  1.5349193112068457e-01  1.7062001423048759e-01  1.8385520068077812e-01  1.3965313231403340e-01  3.8199158921052340e-01  5.3520760709245563e-01  -2.3716991302213586e-03  4.4481285351761171e-02  -6.1942249321959431e-01  -6.7212412659871978e-01  -1.4191897775929757e-01  -1.1694003404620376e-01  -1.7902967248542656e-01  -1.3950340987585746e-01  -2.0122720236587616e-01  -3.2618235716971455e-01  -3.4195136221203959e-01  -5.3857031142123576e-02  3.4225295253294252e-01  3.0235896838152110e-01  1.4177173126670289e-01  1.3427043291624691e-01  1.4998513194639071e-01  1.2688094727131458e-01  2.0092475058060624e-01  5.9280507461508203e-01  6.6278913087727853e-01  4.4481285351761171e-02  6.0625995407288302e-02  -5.4916596228043157e-01  -6.3993182552640293e-01  -3.0284860496647026e-01  -2.2459698325867358e-01  -2.6248855921631403e-01  -3.8332616881277370e-01  -5.9400436989487393e-01  -5.5943441821705764e-01  -3.3433385850813074e-01  -2.7435023818912094e-02  3.8691698873334152e-01  6.4009300940156122e-01  6.7108395197123827e-01  4.5090469004634942e-01  3.0937058901903264e-01  2.5006404105005542e-01  3.2571251231936327e-01  5.5872853739446526e-01  5.9123103350733452e-01  6.0625995407288302e-02  -6.3047188081694100e-02  -3.6626829773473885e-01  -3.8599143025912191e-01  -3.4140946994151178e-01  -3.5920655446982580e-01  -4.2183826831613974e-01  -5.3453020933656847e-01  -6.6211656401092545e-01  -5.9122496801399183e-01  -2.7407610227573620e-01  3.2290894453599513e-02  3.6652867013533630e-01  5.4988729802384639e-01  6.2018323731231373e-01  5.1722550333947404e-01  4.1658487871802080e-01  3.6010562282645942e-01  3.4185432362545382e-01  3.3400123927335251e-01  2.7355695490075416e-01  -6.3047188081694100e-02  -8.0389946003121202e-02  -3.2300902934553122e-02  2.8024268256093283e-02  5.4606233149668004e-02  5.5764949585342241e-02  3.8101318194913789e-02  3.5933180412719198e-03  -4.2966665486160981e-02  -5.9655360052551398e-02  6.2933162427124684e-02  7.9700445675191578e-02  6.2489673993989352e-02  -6.0055567412298963e-02  -4.3351506720422407e-02  3.1131785833133922e-03  3.7577922527282245e-02  5.5267021115654409e-02  5.4083776988380142e-02  2.7538033884997384e-02  -3.2583992396568791e-02  -8.0389946003121202e-02  -6.4569733460466724e-02  2.7366868244051124e-01  3.3476431256687023e-01  3.4243897413220054e-01  3.6048857602260403e-01  4.1690517478189071e-01  5.1760161218879619e-01  6.2023292739782487e-01  5.4971522905061687e-01  3.6640359772531711e-01  3.1851068951804562e-02  -2.7467778863259118e-01  -5.9179663410240024e-01  -6.6285418613579006e-01  -5.3540894703099207e-01  -4.2261918058244624e-01  -3.6001527438656267e-01  -3.4220634253386711e-01  -3.8678492775332612e-01  -3.6798266897074072e-01  -6.4569733460466724e-02  5.8221258584242444e-02  5.9146709015851384e-01  5.6036289823036323e-01  3.2630436602768442e-01  2.5008285246824569e-01  3.0919719397439888e-01  4.5102227940246842e-01  6.7142137552560088e-01  6.4013061019991524e-01  3.8647550779843698e-01  -2.8040055437229323e-02  -3.3470609214837260e-01  -5.5902130087642055e-01  -5.9307478351363996e-01  -3.8243175456516892e-01  -2.6168346692318128e-01  -2.2382933228803320e-01  -3.0131477141938862e-01  -6.3889657906684805e-01  -5.5186877936679468e-01  5.8221258584242444e-02  4.2494212187736892e-02  6.6242207878044945e-01  5.9391792619146200e-01  2.0111499552774453e-01  1.2676487650648016e-01  1.4981142369961090e-01  1.3420829433690551e-01  1.4183383280624962e-01  3.0256987186549633e-01  3.4169501553967879e-01  -5.4433426840311418e-02  -3.4226241520675554e-01  -3.2542086079909366e-01  -2.0044463649909847e-01  -1.3920843855941883e-01  -1.7905308357504479e-01  -1.1726926255769554e-01  -1.4094423996458558e-01  -6.6951567166075310e-01  -6.2155962356955397e-01  4.2494212187736892e-02  -3.4394789709901981e-03  5.3487077689582518e-01  3.8247673409691607e-01  1.3968950868323685e-01  1.8397583427964120e-01  1.7050919517120708e-01  1.5367226665264866e-01  1.1728376726930106e-01  2.2405297498481291e-01  3.5936675530033402e-01  -5.5428462665241894e-02  -3.6041137980049648e-01  -2.5002279707127839e-01  -1.2649122858236891e-01  -1.8342522562181557e-01  -2.0412639858496337e-01  -1.5345536864170403e-01  -1.3388379035629708e-01  -4.5002391309474066e-01  -5.1791404112319206e-01  -3.4394789709901981e-03  -3.7705554072350017e-02  4.2224410592369827e-01  2.6177475792800886e-01  1.7935534485267116e-01  2.0422896885906427e-01  1.4873438747791834e-01  2.0473432510055695e-01  1.7951029929936077e-01  2.6192980859110937e-01  4.2189397637216475e-01  -3.7638521992910838e-02  -4.1694145661201965e-01  -3.0929918934344869e-01  -1.4945097628071219e-01  -1.7027387141734246e-01  -1.4864000912523259e-01  -1.7055843749057181e-01  -1.4958391045952379e-01  -3.0896542148118239e-01  -4.1695941200727749e-01  -3.7705554072350017e-02  -5.5291158706119455e-02  3.5964858811178468e-01  2.2383254195356533e-01  1.1722382877722133e-01  1.5354733970000237e-01  1.7080518193767447e-01  1.8402518671007703e-01  1.3995734226244114e-01  3.8292095815880273e-01  5.3439592941776137e-01  -3.1551550048338215e-03  -5.1764099912768113e-01  -4.5076298654790520e-01  -1.3395733568567836e-01  -1.5352457082843493e-01  -2.0439777599288486e-01  -1.8358291126752077e-01  -1.2659721203222532e-01  -2.4995177113247394e-01  -3.6042769897579108e-01  -5.5291158706119455e-02  -5.4018156140543859e-02  3.4200608251319936e-01  3.0226893355564916e-01  1.4174326488914052e-01  1.3421141952339422e-01  1.5001777747833567e-01  1.2704029647839932e-01  2.0167326375100186e-01  5.9393806720018472e-01  6.6161652843110841e-01  4.3088479578289277e-02  -6.2049821111102788e-01  -6.7036968739982150e-01  -1.4136895830204460e-01  -1.1736751728967368e-01  -1.7902106092018980e-01  -1.3931823380651337e-01  -2.0082262675967291e-01  -3.2582903971700722e-01  -3.4232268700124985e-01  -5.4018156140543859e-02  -2.7459486506601780e-02  3.8675474904803830e-01  6.3993685392481370e-01  6.7064920960977992e-01  4.5034173802355720e-01  3.0901800026542092e-01  2.4998727975602658e-01  3.2626551316406338e-01  5.5972223174024605e-01  5.9057401820317890e-01  5.8883826071680509e-02  -5.5067187189984990e-01  -6.3922209822560550e-01  -3.0184691968719207e-01  -2.2431673176034059e-01  -2.6217025483296919e-01  -3.8287661463093636e-01  -5.9351433720848235e-01  -5.5951070154194593e-01  -3.3467975128138622e-01  -2.7459486506601780e-02  3.2432608996726224e-02  3.6711450775102161e-01  5.5097997215493921e-01  6.2094217194067913e-01  5.1750563293276386e-01  4.1668358368333785e-01  3.6030080685088495e-01  3.4229949429357676e-01  3.3459418803066077e-01  2.7345232853593110e-01  -6.4336759821118791e-02  -3.6771810215181366e-01  -3.8683154354076194e-01  -3.4211922124110888e-01  -3.5988366188411375e-01  -4.2244197771787212e-01  -5.3502005392904051e-01  -6.6235171068490173e-01  -5.9145214026830806e-01  -2.7422673945271464e-01  3.2432608996726224e-02  8.0100042655311635e-02  6.3609198163124547e-02  -5.8494306414217365e-02  -4.1920502511664744e-02  4.3075309999820203e-03  3.8632524170941054e-02  5.6222528727103011e-02  5.4920310421415187e-02  2.8170311472526546e-02  -3.2162370214554287e-02  -8.0305975850857053e-02  -3.2633688451949125e-02  2.7463346633288137e-02  5.3971365324757499e-02  5.5168741279011273e-02  3.7564645606291358e-02  3.2225970297997783e-03  -4.3045470610488600e-02  -5.9361917197267557e-02  6.3175330722241532e-02  8.0100042655311635e-02  9.3005824078360708e-02  1.0767768565400151e-01  3.8511285010502334e-02  -7.7789629118352631e-03  -2.7903897021418766e-02  -3.0290815151136553e-02  -3.8030810927343291e-02  -7.0229094629957703e-02  -1.0306619431414595e-01  -1.2464374591568601e-01  -9.3016873868814687e-02  -2.1583243762240214e-02  5.4173171387619984e-02  8.9265763502213394e-02  1.1421054156426821e-01  1.2893941308989926e-01  8.0687792992399102e-02  -3.2651678724028403e-02  -1.4396910676201957e-01  -4.9178798043753344e-02  9.3005824078360708e-02  2.1216869797561950e-02  -1.3576548883344566e-01  -3.4097192453287778e-01  -4.7999512950895251e-01  -4.8711149303689094e-01  -4.2639321883140746e-01  -3.8689239441444440e-01  -4.3830625518001359e-01  -4.5848453650785470e-01  -3.5648637075406742e-01  -1.0722597371488984e-01  1.3611624440928333e-01  2.4256484150117644e-01  2.9436992183176253e-01  3.1987326114013120e-01  3.4420636933855020e-01  4.5529046385347333e-01  5.4346860838569644e-01  3.7575994137647428e-01  2.4781328060542027e-01  2.1216869797561950e-02  -5.4439889931529213e-02  -2.4265706517572974e-01  -4.6425175445306871e-01  -6.0452622026287550e-01  -4.7715053467089152e-01  -3.2255896980435439e-01  -2.5979185285813772e-01  -3.8177300010228643e-01  -5.7127821231003706e-01  -4.9387145398525545e-01  -3.7399754507854821e-02  3.4143551922809984e-01  4.6360716174966132e-01  4.2635572996065757e-01  2.8777481905357410e-01  2.2105774332352718e-01  3.6651699700555884e-01  6.5836976988809481e-01  6.2992966986052190e-01  3.7521553337985442e-01  -5.4439889931529213e-02  -8.9517098252195074e-02  -2.9480836305335878e-01  -4.2727784971611066e-01  -3.9238312285546079e-01  -2.0470398888754232e-01  -1.5635161793392854e-01  -1.5517161544565833e-01  -1.7773624179607919e-01  -5.4248073947954101e-01  -6.0080103643381755e-01  9.3385022983332941e-03  4.8066666735875568e-01  6.0365005966115448e-01  3.9160045380927638e-01  2.1457778107524325e-01  1.6841012297870167e-01  2.0019135579002845e-01  2.1640996195919715e-01  3.4952102949729336e-01  3.8491295350715016e-01  -8.9517098252195074e-02  -1.1448163036507859e-01  -3.2049012228108092e-01  -2.8832745893175143e-01  -2.1465850317389173e-01  -1.6525919766498684e-01  -2.1234188931220849e-01  -2.4821002057834526e-01  -1.9556017491764199e-01  -3.6014186069198789e-01  -5.6011936806365858e-01  2.9724335511878339e-02  4.8774577800363733e-01  4.7629764241171363e-01  2.0440789429625117e-01  1.6526912705490424e-01  1.7625735096625417e-01  2.7295148209540487e-01  1.9855954339010690e-01  1.2880622437074121e-01  3.5043525479802157e-01  -1.1448163036507859e-01  -1.2899137119398293e-01  -3.4483196763125951e-01  -2.2162208948859835e-01  -1.6831842963986279e-01  -1.7621150169686167e-01  -2.6099480452771240e-01  -3.6275903788982999e-01  -1.9496798845467636e-01  -2.4526925847111325e-01  -5.1944300327266080e-01  3.2304471776048255e-02  4.2658483904542199e-01  3.2165195340080738e-01  1.5629603576430467e-01  2.1258139710090065e-01  2.6111485731653356e-01  3.9743650709592082e-01  3.7378014094472783e-01  1.8658164296560534e-01  3.5301841566843351e-01  -1.2899137119398293e-01  -8.0244610142863923e-02  -4.5571573706121704e-01  -3.6747790160726418e-01  -1.9983046669872773e-01  -2.7273902776169440e-01  -3.9765993897244628e-01  -4.0593038962384748e-01  -1.2688734692995396e-01  -2.2251923294441317e-01  -4.8749443019624583e-01  4.0125401414952480e-02  3.8682052872808065e-01  2.5896086852369049e-01  1.5513537291345103e-01  2.4829024638189706e-01  3.6231846824410607e-01  4.0578695075922372e-01  2.8971257967666053e-01  2.8410385701230717e-01  4.7433705487445482e-01  -8.0244610142863923e-02  3.3429352323960743e-02  -5.4306656470211900e-01  -6.5933206593448179e-01  -2.1685297378651147e-01  -1.9768849121258433e-01  -3.7328244848897896e-01  -2.8941434348277734e-01  -1.9020188012805334e-01  -3.1705006533496721e-01  -4.2605932504283511e-01  7.2052398228011905e-02  4.3861300806313136e-01  3.8116037530366542e-01  1.7786531276877737e-01  1.9563212322213155e-01  1.9501916761995322e-01  1.2697737445617135e-01  1.9022551871055424e-01  4.4705978084704617e-01  5.9112247036741394e-01  3.3429352323960743e-02  1.4447722699062929e-01  -3.7462478211414313e-01  -6.2954429146289459e-01  -3.5026972207388846e-01  -1.2919284806689413e-01  -1.8663949233649332e-01  -2.8452464751663892e-01  -4.4740789294429362e-01  -4.5950994364517322e-01  -3.8076478024187838e-01  1.0428680688141817e-01  4.5854183537058413e-01  5.7034538346402275e-01  5.4222833129525960e-01  3.6004609605507792e-01  2.4497947114515792e-01  2.2222959837928449e-01  3.1728428757365285e-01  4.5990831973406904e-01  5.1803765195866269e-01  1.4447722699062929e-01  4.9305852623832212e-02  -2.4746087403405648e-01  -3.7507830936973319e-01  -3.8497477121303159e-01  -3.5059568607977376e-01  -3.5317761649684537e-01  -4.7426689388116383e-01  -5.9112936443992337e-01  -5.1822339513458515e-01  -3.1857000428794630e-01  1.2494789951673450e-01  3.5589594148173354e-01  4.9308439490473471e-01  6.0070887825044750e-01  5.6037566558648533e-01  5.1968634913057599e-01  4.8809926932573106e-01  4.2685164592527070e-01  3.8120924812003643e-01  3.1849220273292100e-01  4.9305852623832212e-02  -9.3556875168548367e-02  -2.1691442068749119e-02  5.4185273768889035e-02  8.9569085042550095e-02  1.1474512033321238e-01  1.2949558639552217e-01  8.1040202463007222e-02  -3.2708659009625031e-02  -1.4436057883440032e-01  -4.9255747819503662e-02  9.2522615729693253e-02  1.0680420882377900e-01  3.7521610922860209e-02  -8.7825666301454240e-03  -2.9045662313342914e-02  -3.1548514398271714e-02  -3.9178873487544445e-02  -7.1324228693180988e-02  -1.0405740126959045e-01  -1.2546059725303105e-01  -9.3556875168548367e-02  -1.0825298478655673e-01  1.3570069441325203e-01  2.4282532960143410e-01  2.9475314833378102e-01  3.2011917560820002e-01  3.4441217869529817e-01  4.5553893678114832e-01  5.4350908930211439e-01  3.7527948674301354e-01  2.4761157679545526e-01  2.0563099052142240e-02  -1.3616748230651654e-01  -3.4104329769976177e-01  -4.8041740748632439e-01  -4.8783847807125685e-01  -4.2680316935331675e-01  -3.8679660717332154e-01  -4.3819868528995826e-01  -4.5881370630941398e-01  -3.5734166997250205e-01  -1.0825298478655673e-01  -3.8753213084320080e-02  3.4129964005959296e-01  4.6448112858694313e-01  4.2692367607882192e-01  2.8762343812267549e-01  2.2095857735357907e-01  3.6680024757959345e-01  6.5917652188537379e-01  6.3003889221365206e-01  3.7517396351942317e-01  -5.5173567157266880e-02  -2.4251802619554558e-01  -4.6320170431037955e-01  -6.0344955870710870e-01  -4.7664354549510640e-01  -3.2203501193563727e-01  -2.5909990287895218e-01  -3.8006210396137402e-01  -5.6984714933183123e-01  -4.9470508619904180e-01  -3.8753213084320080e-02  8.1431881643096674e-03  4.8070525884157533e-01  6.0447360895548097e-01  3.9172287934435718e-01  2.1394042249067721e-01  1.6789171191087235e-01  1.9993798200968604e-01  2.1666069508788335e-01  3.5010998527995435e-01  3.8478045511010145e-01  -9.0142233987172582e-02  -2.9444243572975698e-01  -4.2618607527701619e-01  -3.9150071874286679e-01  -2.0434769663571600e-01  -1.5624655202009499e-01  -1.5541072005834994e-01  -1.7702404967874746e-01  -5.4071725350312527e-01  -6.0183725314097902e-01  8.1431881643096674e-03  2.8854528850716654e-02  4.8779976006801423e-01  4.7652573471968440e-01  2.0409734612229596e-01  1.6490270073470634e-01  1.7614924466576995e-01  2.7295738388837953e-01  1.9827189720803798e-01  1.2910995812858098e-01  3.5044121793460403e-01  -1.1496227002965036e-01  -3.2004397571383020e-01  -2.8760697222591697e-01  -2.1412173439487001e-01  -1.6499712057144170e-01  -2.1242717754894677e-01  -2.4831427583656876e-01  -1.9552005631815444e-01  -3.5927047338810025e-01  -5.6091181463898043e-01  2.8854528850716654e-02  3.1654926818124006e-02  4.2667474058488170e-01  3.2170473692839696e-01  1.5632597227111433e-01  2.1275688801125844e-01  2.6108564038733778e-01  3.9783968069561654e-01  3.7360405792548557e-01  1.8660310081090814e-01  3.5301507054128090e-01  -1.2967810067841759e-01  -3.4450735099951835e-01  -2.2087534022076166e-01  -1.6791897515409998e-01  -1.7607419768952146e-01  -2.6083073571517529e-01  -3.6230541561781821e-01  -1.9486065173933756e-01  -2.4482948260274812e-01  -5.1995215187834631e-01  3.1654926818124006e-02  3.9526869544342216e-02  3.8685650534649008e-01  2.5899644285553258e-01  1.5538752720439261e-01  2.4846852945606449e-01  3.6268577168886412e-01  4.0601682174775550e-01  2.8988275203496133e-01  2.8441060467055818e-01  4.7401062260587040e-01  -8.1197467339915591e-02  -4.5573980363450078e-01  -3.6670392019859321e-01  -1.9978985527557369e-01  -2.7282798196846675e-01  -3.9730551121867913e-01  -4.0552254918578845e-01  -1.2666755950675423e-01  -2.2220143832254186e-01  -4.8801560396312044e-01  3.9526869544342216e-02  7.1519237001459318e-02  4.3828008096302556e-01  3.8094174295152688e-01  1.7770419715451499e-01  1.9572962503212432e-01  1.9524663281081267e-01  1.2738502603951560e-01  1.9075422342474707e-01  4.4751863033959255e-01  5.9065065742538625e-01  3.2386171833038095e-02  -5.4358018610961101e-01  -6.5848695701906534e-01  -2.1596308328427707e-01  -1.98247777526888