<?xml version="1.0"?>
<VTKFile type="UnstructuredGrid"  version="0.1"  >
<UnstructuredGrid>
<Piece  NumberOfPoints="2197" NumberOfCells="10368">
<Points>
<DataArray  type="Float64"  NumberOfComponents="3"  format="ascii">-3.141592653589793 -3.141592653589793 -3.141592653589793  -2.617993877991494 -3.141592653589793 -3.141592653589793  -2.094395102393196 -3.141592653589793 -3.141592653589793  -1.570796326794897 -3.141592653589793 -3.141592653589793  -1.047197551196598 -3.141592653589793 -3.141592653589793  -0.5235987755982987 -3.141592653589793 -3.141592653589793  0 -3.141592653589793 -3.141592653589793  0.5235987755982987 -3.141592653589793 -3.141592653589793  1.047197551196597 -3.141592653589793 -3.141592653589793  1.570796326794897 -3.141592653589793 -3.141592653589793  2.094395102393196 -3.141592653589793 -3.141592653589793  2.617993877991494 -3.141592653589793 -3.141592653589793  3.141592653589793 -3.141592653589793 -3.141592653589793  -3.141592653589793 -2.617993877991494 -3.141592653589793  -2.617993877991494 -2.617993877991494 -3.141592653589793  -2.094395102393196 -2.617993877991494 -3.141592653589793  -1.570796326794897 -2.617993877991494 -3.141592653589793  -1.047197551196598 -2.617993877991494 -3.141592653589793  -0.5235987755982987 -2.617993877991494 -3.141592653589793  0 -2.617993877991494 -3.141592653589793  0.5235987755982987 -2.617993877991494 -3.141592653589793  1.047197551196597 -2.617993877991494 -3.141592653589793  1.570796326794897 -2.617993877991494 -3.141592653589793  2.094395102393196 -2.617993877991494 -3.141592653589793  2.617993877991494 -2.617993877991494 -3.141592653589793  3.141592653589793 -2.617993877991494 -3.141592653589793  -3.141592653589793 -2.094395102393196 -3.141592653589793  -2.617993877991494 -2.094395102393196 -3.141592653589793  -2.094395102393196 -2.094395102393196 -3.141592653589793  -1.570796326794897 -2.094395102393196 -3.141592653589793  -1.047197551196598 -2.094395102393196 -3.141592653589793  -0.5235987755982987 -2.094395102393196 -3.141592653589793  0 -2.094395102393196 -3.141592653589793  0.5235987755982987 -2.094395102393196 -3.141592653589793  1.047197551196597 -2.094395102393196 -3.141592653589793  1.570796326794897 -2.094395102393196 -3.141592653589793  2.094395102393196 -2.094395102393196 -3.141592653589793  2.617993877991494 -2.094395102393196 -3.141592653589793  3.141592653589793 -2.094395102393196 -3.141592653589793  -3.141592653589793 -1.570796326794897 -3.141592653589793  -2.617993877991494 -1.570796326794897 -3.141592653589793  -2.094395102393196 -1.570796326794897 -3.141592653589793  -1.570796326794897 -1.570796326794897 -3.141592653589793  -1.047197551196598 -1.570796326794897 -3.141592653589793  -0.5235987755982987 -1.570796326794897 -3.141592653589793  0 -1.570796326794897 -3.141592653589793  0.5235987755982987 -1.570796326794897 -3.141592653589793  1.047197551196597 -1.570796326794897 -3.141592653589793  1.570796326794897 -1.570796326794897 -3.141592653589793  2.094395102393196 -1.570796326794897 -3.141592653589793  2.617993877991494 -1.570796326794897 -3.141592653589793  3.141592653589793 -1.570796326794897 -3.141592653589793  -3.141592653589793 -1.047197551196598 -3.141592653589793  -2.617993877991494 -1.047197551196598 -3.141592653589793  -2.094395102393196 -1.047197551196598 -3.141592653589793  -1.570796326794897 -1.047197551196598 -3.141592653589793  -1.047197551196598 -1.047197551196598 -3.141592653589793  -0.5235987755982987 -1.047197551196598 -3.141592653589793  0 -1.047197551196598 -3.141592653589793  0.5235987755982987 -1.047197551196598 -3.141592653589793  1.047197551196597 -1.047197551196598 -3.141592653589793  1.570796326794897 -1.047197551196598 -3.141592653589793  2.094395102393196 -1.047197551196598 -3.141592653589793  2.617993877991494 -1.047197551196598 -3.141592653589793  3.141592653589793 -1.047197551196598 -3.141592653589793  -3.141592653589793 -0.5235987755982987 -3.141592653589793  -2.617993877991494 -0.5235987755982987 -3.141592653589793  -2.094395102393196 -0.5235987755982987 -3.141592653589793  -1.570796326794897 -0.5235987755982987 -3.141592653589793  -1.047197551196598 -0.5235987755982987 -3.141592653589793  -0.5235987755982987 -0.5235987755982987 -3.141592653589793  0 -0.5235987755982987 -3.141592653589793  0.5235987755982987 -0.5235987755982987 -3.141592653589793  1.047197551196597 -0.5235987755982987 -3.141592653589793  1.570796326794897 -0.5235987755982987 -3.141592653589793  2.094395102393196 -0.5235987755982987 -3.141592653589793  2.617993877991494 -0.5235987755982987 -3.141592653589793  3.141592653589793 -0.5235987755982987 -3.141592653589793  -3.141592653589793 0 -3.141592653589793  -2.617993877991494 0 -3.141592653589793  -2.094395102393196 0 -3.141592653589793  -1.570796326794897 0 -3.141592653589793  -1.047197551196598 0 -3.141592653589793  -0.5235987755982987 0 -3.141592653589793  0 0 -3.141592653589793  0.5235987755982987 0 -3.141592653589793  1.047197551196597 0 -3.141592653589793  1.570796326794897 0 -3.141592653589793  2.094395102393196 0 -3.141592653589793  2.617993877991494 0 -3.141592653589793  3.141592653589793 0 -3.141592653589793  -3.141592653589793 0.5235987755982987 -3.141592653589793  -2.617993877991494 0.5235987755982987 -3.141592653589793  -2.094395102393196 0.5235987755982987 -3.141592653589793  -1.570796326794897 0.5235987755982987 -3.141592653589793  -1.047197551196598 0.5235987755982987 -3.141592653589793  -0.5235987755982987 0.5235987755982987 -3.141592653589793  0 0.5235987755982987 -3.141592653589793  0.5235987755982987 0.5235987755982987 -3.141592653589793  1.047197551196597 0.5235987755982987 -3.141592653589793  1.570796326794897 0.5235987755982987 -3.141592653589793  2.094395102393196 0.5235987755982987 -3.141592653589793  2.617993877991494 0.5235987755982987 -3.141592653589793  3.141592653589793 0.5235987755982987 -3.141592653589793  -3.141592653589793 1.047197551196597 -3.141592653589793  -2.617993877991494 1.047197551196597 -3.141592653589793  -2.094395102393196 1.047197551196597 -3.141592653589793  -1.570796326794897 1.047197551196597 -3.141592653589793  -1.047197551196598 1.047197551196597 -3.141592653589793  -0.5235987755982987 1.047197551196597 -3.141592653589793  0 1.047197551196597 -3.141592653589793  0.5235987755982987 1.047197551196597 -3.141592653589793  1.047197551196597 1.047197551196597 -3.141592653589793  1.570796326794897 1.047197551196597 -3.141592653589793  2.094395102393196 1.047197551196597 -3.141592653589793  2.617993877991494 1.047197551196597 -3.141592653589793  3.141592653589793 1.047197551196597 -3.141592653589793  -3.141592653589793 1.570796326794897 -3.141592653589793  -2.617993877991494 1.570796326794897 -3.141592653589793  -2.094395102393196 1.570796326794897 -3.141592653589793  -1.570796326794897 1.570796326794897 -3.141592653589793  -1.047197551196598 1.570796326794897 -3.141592653589793  -0.5235987755982987 1.570796326794897 -3.141592653589793  0 1.570796326794897 -3.141592653589793  0.5235987755982987 1.570796326794897 -3.141592653589793  1.047197551196597 1.570796326794897 -3.141592653589793  1.570796326794897 1.570796326794897 -3.141592653589793  2.094395102393196 1.570796326794897 -3.141592653589793  2.617993877991494 1.570796326794897 -3.141592653589793  3.141592653589793 1.570796326794897 -3.141592653589793  -3.141592653589793 2.094395102393196 -3.141592653589793  -2.617993877991494 2.094395102393196 -3.141592653589793  -2.094395102393196 2.094395102393196 -3.141592653589793  -1.570796326794897 2.094395102393196 -3.141592653589793  -1.047197551196598 2.094395102393196 -3.141592653589793  -0.5235987755982987 2.094395102393196 -3.141592653589793  0 2.094395102393196 -3.141592653589793  0.5235987755982987 2.094395102393196 -3.141592653589793  1.047197551196597 2.094395102393196 -3.141592653589793  1.570796326794897 2.094395102393196 -3.141592653589793  2.094395102393196 2.094395102393196 -3.141592653589793  2.617993877991494 2.094395102393196 -3.141592653589793  3.141592653589793 2.094395102393196 -3.141592653589793  -3.141592653589793 2.617993877991494 -3.141592653589793  -2.617993877991494 2.617993877991494 -3.141592653589793  -2.094395102393196 2.617993877991494 -3.141592653589793  -1.570796326794897 2.617993877991494 -3.141592653589793  -1.047197551196598 2.617993877991494 -3.141592653589793  -0.5235987755982987 2.617993877991494 -3.141592653589793  0 2.617993877991494 -3.141592653589793  0.5235987755982987 2.617993877991494 -3.141592653589793  1.047197551196597 2.617993877991494 -3.141592653589793  1.570796326794897 2.617993877991494 -3.141592653589793  2.094395102393196 2.617993877991494 -3.141592653589793  2.617993877991494 2.617993877991494 -3.141592653589793  3.141592653589793 2.617993877991494 -3.141592653589793  -3.141592653589793 3.141592653589793 -3.141592653589793  -2.617993877991494 3.141592653589793 -3.141592653589793  -2.094395102393196 3.141592653589793 -3.141592653589793  -1.570796326794897 3.141592653589793 -3.141592653589793  -1.047197551196598 3.141592653589793 -3.141592653589793  -0.5235987755982987 3.141592653589793 -3.141592653589793  0 3.141592653589793 -3.141592653589793  0.5235987755982987 3.141592653589793 -3.141592653589793  1.047197551196597 3.141592653589793 -3.141592653589793  1.570796326794897 3.141592653589793 -3.141592653589793  2.094395102393196 3.141592653589793 -3.141592653589793  2.617993877991494 3.141592653589793 -3.141592653589793  3.141592653589793 3.141592653589793 -3.141592653589793  -3.141592653589793 -3.141592653589793 -2.617993877991494  -2.617993877991494 -3.141592653589793 -2.617993877991494  -2.094395102393196 -3.141592653589793 -2.617993877991494  -1.570796326794897 -3.141592653589793 -2.617993877991494  -1.047197551196598 -3.141592653589793 -2.617993877991494  -0.5235987755982987 -3.141592653589793 -2.617993877991494  0 -3.141592653589793 -2.617993877991494  0.5235987755982987 -3.141592653589793 -2.617993877991494  1.047197551196597 -3.141592653589793 -2.617993877991494  1.570796326794897 
[...]
<PointData  Scalars="f_128468"> 
<DataArray  type="Float64"  Name="f_128468"  format="ascii">6.4090357451812893e-02  4.9372050094309596e-02  1.3467155280686705e-02  -8.1167233801118979e-03  -2.0642210203105781e-03  -4.2910956393154037e-02  -6.5061036191675553e-02  -3.8585328774533974e-02  -1.6736819960475144e-02  -6.3258281226717325e-03  3.6276876983351363e-03  4.4324975157458882e-02  6.4090357451812893e-02  4.8360578609560431e-02  -5.6937853698975260e-01  -9.4318958300525646e-01  -1.0560512531400958e+00  -1.0041355439624795e+00  -6.4577348948238766e-01  -4.7754306824186347e-02  5.6888366483651354e-01  9.7860918728197932e-01  1.0596063734838741e+00  9.6060716349302655e-01  6.3598039424179909e-01  4.8360578609560431e-02  8.6637552970564649e-03  -9.8391716933491657e-01  -1.5262664184517325e+00  -1.7314763481889528e+00  -1.6052900048425787e+00  -9.5839209401316650e-01  -5.7675295567184044e-03  9.3503841363929030e-01  1.5300378779183748e+00  1.7327681941362378e+00  1.6123937133431032e+00  1.0028811491536420e+00  8.6637552970564649e-03  1.7446046443107661e-03  -1.0497518622634732e+00  -1.7412757176759313e+00  -2.0044365496389309e+00  -1.7318638885687658e+00  -1.0566621361536901e+00  3.6386507423770203e-03  1.0588671143259536e+00  1.7285572662584641e+00  1.9944747367044340e+00  1.7249579937728317e+00  1.0572414093561400e+00  1.7446046443107661e-03  -4.6075153954917760e-03  -9.6131459022882748e-01  -1.6111889406800417e+00  -1.7279313640527671e+00  -1.5299641508380448e+00  -9.8271270370879915e-01  9.5224152874598834e-03  1.0066156127791375e+00  1.6155196443977289e+00  1.7245633893178864e+00  1.5272742688270149e+00  9.3347268310481701e-01  -4.6075153954917760e-03  -4.5174547273169739e-02  -6.4727092813123377e-01  -1.0003103964893079e+00  -1.0602598699002739e+00  -9.3135312196385178e-01  -5.6646196407352489e-01  4.6107061877868824e-02  6.4395295335442482e-01  9.5808375728761330e-01  1.0565609230981836e+00  9.7738879739997797e-01  5.6821809829645920e-01  -4.5174547273169739e-02  -5.5773895722288379e-02  -4.3313944917488530e-02  -9.1585954107842402e-03  -7.8355775193657056e-04  1.0043729040041192e-02  4.3686520050899694e-02  5.8980628263921385e-02  4.3723386498762611e-02  1.0279318718072890e-02  -6.0817728940397711e-03  -8.8592647268643122e-03  -4.5948636434929101e-02  -5.5773895722288379e-02  -4.9619062664791089e-02  5.6869364186719373e-01  9.7720188945860076e-01  1.0613201118371154e+00  9.6135617990472899e-01  6.4363329318447626e-01  4.0616676438491810e-02  -5.6748609649082682e-01  -9.3623516471845813e-01  -1.0592467906656036e+00  -9.9846091025442030e-01  -6.4137732970418693e-01  -4.9619062664791089e-02  -8.6419497520520035e-03  9.3839733024074246e-01  1.5305552462092979e+00  1.7299838315884115e+00  1.6137328815762713e+00  9.9976096699584438e-01  1.1153627120318803e-02  -9.8348646282120655e-01  -1.5274972805301148e+00  -1.7323555183267836e+00  -1.6065893863522289e+00  -9.5707612797180175e-01  -8.6419497520520035e-03  1.1582938136352864e-03  1.0634153748787527e+00  1.7321407207187909e+00  2.0029219446475355e+00  1.7319235992526405e+00  1.0526304035955676e+00  1.2914681601415765e-03  -1.0581959041342475e+00  -1.7329784342006269e+00  -1.9998444002503364e+00  -1.7316162686881222e+00  -1.0595298430021380e+00  1.1582938136352864e-03  9.2928092611873625e-03  1.0020039830590923e+00  1.6143218415690126e+00  1.7259462188795480e+00  1.5278050159736887e+00  9.3474650719518881e-01  -1.0149888495212556e-02  -9.6272358669086144e-01  -1.5967709220002078e+00  -1.7303390509839451e+00  -1.5259652632399956e+00  -9.7481329853999099e-01  9.2928092611873625e-03  3.8283671558292029e-02  6.4544770743437918e-01  9.6067366635810958e-01  1.0559181503490871e+00  9.8194483381779096e-01  5.7530239816887063e-01  -5.1723287706150353e-02  -6.4019887980390500e-01  -1.0011197986592546e+00  -1.0597194088701143e+00  -9.3538824469899573e-01  -5.6695899417636109e-01  3.8283671558292029e-02  6.4090357451812893e-02  4.9372050094309596e-02  1.3467155280686705e-02  -8.1167233801118979e-03  -2.0642210203105781e-03  -4.2910956393154037e-02  -6.5061036191675553e-02  -3.8585328774533974e-02  -1.6736819960475144e-02  -6.3258281226717325e-03  3.6276876983351363e-03  4.4324975157458882e-02  6.4090357451812893e-02  5.5076208627610111e-02  2.1451792168608468e-02  -1.2145810819411891e-02  -1.8316169706278342e-02  -3.1317339921570736e-02  -5.9036777081951604e-02  -4.4485289088799181e-02  -2.2777532507645352e-02  1.4480577706769865e-02  1.9331161371161712e-02  4.0594905369854044e-02  6.1523185870371713e-02  5.5076208627610111e-02  1.4051544133071013e-02  -5.0562813374771798e-01  -8.2407770162847138e-01  -9.5141333753686175e-01  -8.8676203472728665e-01  -5.3410080231697898e-01  -2.9486365320566303e-02  5.0529992922551548e-01  8.3292033417615041e-01  9.4276190056980957e-01  8.5817855400104048e-01  5.4094746202264365e-01  1.4051544133071013e-02  -1.2618453541886152e-02  -8.3629075512108764e-01  -1.3537922475525528e+00  -1.5639904365539561e+00  -1.3971284211088597e+00  -8.0557457313779335e-01  1.4558264852583977e-02  8.2031226570619253e-01  1.3512502852240680e+00  1.5534490988608931e+00  1.4016630362178644e+00  8.4087808625077110e-01  -1.2618453541886152e-02  -2.0853605240751555e-02  -9.4405462212056412e-01  -1.5524840523255030e+00  -1.7598220392345092e+00  -1.5313307457265990e+00  -9.1138409649448970e-01  2.2978614096117723e-02  9.4680300316613264e-01  1.5650432221849790e+00  1.7611051344581570e+00  1.5112950838170576e+00  9.1143915859996361e-01  -2.0853605240751555e-02  -4.0034700485668977e-02  -8.6527950129202247e-01  -1.4020030152541862e+00  -1.5101294841622386e+00  -1.3462128576015706e+00  -8.3149835724507182e-01  3.5970127352768971e-02  8.8335616691598184e-01  1.3908787228368309e+00  1.5199167218078717e+00  1.3384450623052839e+00  7.9841118855394966e-01  -4.0034700485668977e-02  -5.8602021362162894e-02  -5.4337420047792950e-01  -8.3641142638201871e-01  -9.1217523405011902e-01  -7.9582035748639002e-01  -4.4760305970061859e-01  5.9052239927454453e-02  5.3682147732196961e-01  8.0797320320618859e-01  9.1629580519366394e-01  8.3459718808952943e-01  4.4649047525263302e-01  -5.8602021362162894e-02  -5.2801213701860999e-02  -1.5154448377963835e-02  9.9364492983725836e-03  2.2326986575963142e-02  3.9374803837649887e-02  5.8962903343613648e-02  4.9384914386958731e-02  2.4723677475588318e-02  -1.1453777004499474e-02  -2.1320481094346054e-02  -3.5834174039654734e-02  -5.7290224433040902e-02  -5.2801213701860999e-02  -2.5538294703905819e-02  4.9913998513401153e-01  8.3446626507357846e-01  9.4260272476705809e-01  8.6621658947567592e-01  5.4304133877213456e-01  1.8710371245081934e-02  -5.0634065484532964e-01  -8.1929735653847713e-01  -9.4652512114328968e-01  -8.8495698186477600e-01  -5.3911558602955534e-01  -2.5538294703905819e-02  1.6810157630126568e-02  8.2404824252969378e-01  1.3486823987473169e+00  1.5572629978511419e+00  1.4019281247544286e+00  8.4038119625430752e-01  -1.8065921791788304e-02  -8.3174817598409334e-01  -1.3507324464718664e+00  -1.5654665185465240e+00  -1.3850648020908580e+00  -8.0522622212554351e-01  1.6810157630126568e-02  1.7271718000383914e-02  9.5298356380286531e-01  1.5632839101177218e+00  1.7652632732872917e+00  1.5043342105336508e+00  9.1421661970603718e-01  -2.5042293436539596e-02  -9.4523756238877543e-01  -1.5511897654007296e+00  -1.7610741705255346e+00  -1.5299425121048031e+00  -9.1108556683949271e-01  1.7271718000383914e-02  4.0278562667632536e-02  8.8303508667428210e-01  1.3949442473495166e+00  1.5227659138770917e+00  1.3450590619116700e+00  8.0036937959632848e-01  -4.4523565985104985e-02  -8.6123176044710903e-01  -1.3985099057763353e+00  -1.5163933035487982e+00  -1.3439697028635056e+00  -8.3915600916618072e-01  4.0278562667632536e-02  6.2827090104175337e-02  5.4644066893456222e-01  7.9917025571910638e-01  9.1430540804386495e-01  8.3452264605014903e-01  4.4682117143354294e-01  -5.1256125372903555e-02  -5.4722326176434677e-01  -8.2925785544978192e-01  -9.0706953687006719e-01  -7.9921855898902971e-01  -4.5016297872848071e-01  6.2827090104175337e-02  5.5076208627610111e-02  2.1451792168608468e-02  -1.2145810819411891e-02  -1.8316169706278342e-02  -3.1317339921570736e-02  -5.9036777081951604e-02  -4.4485289088799181e-02  -2.2777532507645352e-02  1.4480577706769865e-02  1.9331161371161712e-02  4.0594905369854044e-02  6.1523185870371713e-02  5.5076208627610111e-02  2.0574579706320352e-02  4.4265024372534337e-03  -1.8928590746266866e-02  -3.8244456224184827e-02  -4.6328915444053258e-02  -5.1801217446392996e-02  -2.4568005230051954e-02  3.8704969820289306e-03  2.6639900081804363e-02  3.5026119119123934e-02  4.5312368421946012e-02  3.3269556989555582e-02  2.0574579706320352e-02  6.6234243042507272e-03  -3.0228039779887178e-01  -5.0471120984377138e-01  -5.8866665318553146e-01  -5.0963402374535183e-01  -3.0638822722583781e-01  1.4062427324769739e-03  2.9456781070521343e-01  5.0538519072678501e-01  5.9056157852801872e-01  5.1799376522027019e-01  2.9938554987321780e-01  6.6234243042507272e-03  -2.1318154372522571e-02  -5.0848507395658027e-01  -8.3994662349069737e-01  -9.5478418185429970e-01  -8.1602240245548330e-01  -4.5383168633642479e-01  1.4822158283167070e-02  5.1118230496374040e-01  8.3794889905843040e-01  9.5163821117257263e-01  8.1602328266916024e-01  4.5641833666493248e-01  -2.1318154372522571e-02  -3.9584924920110405e-02  -5.8577953278753692e-01  -9.5320401246395559e-01  -1.0571293587342876e+00  -8.9897412323790116e-01  -5.1564441051659171e-01  3.7601699228912329e-02  5.8756291132094163e-01  9.5669660562681591e-01  1.0530787164309929e+00  9.0209255486031492e-01  5.1269232920265395e-01  -3.9584924920110405e-02  -5.0177670987187263e-02  -5.1701773649296257e-01  -8.1571831796769301e-01  -9.0176457561757317e-01  -7.7145106160976518e-01  -4.2663295261265760e-01  5.1408094870458276e-02  5.1504931180130553e-01  8.1763932703949649e-01  8.9709985611803089e-01  7.6671006316486745e-01  4.2980257592851295e-01  -5.0177670987187263e-02  -3.9884046385871071e-02  -3.0001844912036524e-01  -4.6260709167677228e-01  -5.0720810774964131e-01  -4.2507881109317647e-01  -2.1043932262251913e-01  5.1016317567293377e-02  3.0142499365487008e-01  4.5324439583827719e-01  5.1399963230778123e-01  4.2740643524298089e-01  2.1475503668431234e-01  -3.9884046385871071e-02  -2.7948719144674599e-02  1.5093861635418516e-03  2.3216766638004347e-02  3.9814848177439584e-02  4.8525933922532329e-02  4.2218185129173705e-02  2.6168394323355462e-02  2.2080956306816022e-04  -2.1972284301914165e-02  -3.8586346623961598e-02  -4.7627617502264220e-02  -5.1176680751022677e-02  -2.7948719144674599e-02  -7.7793054211262305e-04  2.9353159347881203e-01  5.0251507405235063e-01  5.9207829100685794e-01  5.2011580197761942e-01  3.0270077689884944e-01  3.0767138585659653e-03  -2.9683713540788903e-01  -5.0792004525828760e-01  -5.8084541374597698e-01  -5.1301636898983638e-01  -3.0174633537456530e-01  -7.7793054211262305e-04  2.1036266217340272e-02  4.9901541130496840e-01  8.4036549446028741e-01  9.5033371214633211e-01  8.1263749444528055e-01  4.5525979881709605e-01  -2.4378840562373997e-02  -5.0973012149249008e-01  -8.3773461872665178e-01  -9.5218723220832990e-01  -8.1238447252585377e-01  -4.5206681555380063e-01  2.1036266217340272e-02  3.9907548907566606e-02  5.8558192332715264e-01  9.5418553327012912e-01  1.0596769508933868e+00  8.9960333674959869e-01  5.0969094987493568e-01  -4.6079825713738955e-02  -5.9006080658369797e-01  -9.5033550867965866e-01  -1.0566606424354625e+00  -8.9664547197510780e-01  -5.1824079537046674e-01  3.9907548907566606e-02  4.6431133372118648e-02  5.1570001438302082e-01  8.1499255616128496e-01  8.9851075044482609e-01  7.7706821014243233e-01  4.2471175772575892e-01  -5.0578051625873512e-02  -5.1353185949702485e-01  -8.1532107387276609e-01  -9.0033551220767716e-01  -7.7179557306672120e-01  -4.2865929164317684e-01  4.6431133372118648e-02  5.5752799113542605e-02  2.9486753285628653e-01  4.5540187374473656e-01  5.1641153896856828e-01  4.2660228255786398e-01  2.1561438027423577e-01  -3.5931451680426246e-02  -2.9852810687255749e-01  -4.6084991301222034e-01  -5.0852222424568960e-01  -4.2502955305815021e-01  -2.1911485247169435e-01  5.5752799113542605e-02  2.0574579706320352e-02  4.4265024372534337e-03  -1.8928590746266866e-02  -3.8244456224184827e-02  -4.6328915444053258e-02  -5.1801217446392996e-02  -2.4568005230051954e-02  3.8704969820289306e-03  2.6639900081804363e-02  3.5026119119123934e-02  4.5312368421946012e-02  3.3269556989555582e-02  2.0574579706320352e-02  4.1981839301095157e-03  -1.9926072268087611e-02  -3.7617142111055081e-02  -4.7709305519396089e-02  -3.9403502839071403e-02  -2.1687912587312775e-02  -2.4255214043706678e-04  1.6129106007477165e-02  3.6745325173042805e-02  5.1205712336277985e-02  3.5199459941407121e-02  2.4868094938320304e-02  4.1981839301095157e-03  -2.1183789751116917e-02  -4.4888216303126241e-02  -5.6567796492097200e-02  -4.7850675045100891e-02  -2.6799905580468183e-02  -1.7988924840447939e-03  2.3126960798661229e-02  4.7136614113927534e-02  5.7317462656829549e-02  3.9240086321221050e-02  2.0278657225582444e-02  5.6776181175403661e-03  -2.1183789751116917e-02  -4.1223758106727217e-02  -5.4302870300928348e-02  -5.0527392998022246e-02  -3.2515079019624693e-02  -6.6137130821850346e-04  2.0121554257966748e-02  4.2150809035896040e-02  4.3783150774458941e-02  5.3167202173853047e-02  3.4348113143680623e-02  -1.0789772596228615e-03  -1.6221030603197698e-02  -4.1223758106727217e-02  -4.8263121386527774e-02  -4.3772846267219473e-02  -3.1759840744654870e-02  -3.5666077580895519e-03  3.1611749998529073e-02  4.6975280341032905e-02  4.1472704852247605e-02  4.2191103980552806e-02  3.2678067183667149e-02  1.2943302838542071e-03  -2.9404775739685498e-02  -3.9864586850817701e-02  -4.8263121386527774e-02  -3.7454462636958771e-02  -1.6338860969654683e-02  -2.8070438484267784e-03  3.0579075769758483e-02  5.9977108503456195e-02  5.1349448759213059e-02  4.2257422419675748e-02  2.5485611415848965e-02  -1.1935729033815772e-03  -2.7319210566290782e-02  -5.2870112489948752e-02  -5.4732484993886200e-02  -3.7454462636958771e-02  -2.6904100182118626e-02  -1.9330531672875067e-03  2.0060122685091063e-02  4.3121007800041022e-02  5.6371943381609453e-02  4.4059141465297241e-02  2.4228187838755275e-02  4.1013163893236617e-03  -2.5064745839391708e-02  -4.4014721708951016e-02  -5.6205078475809848e-02  -4.4212750869947956e-02  -2.6904100182118626e-02  1.2833162462240917e-03  2.5933833100552466e-02  3.9027160953856173e-02  4.6750135482366922e-02  4.1025138057364831e-02  2.1102154671485525e-02  3.2526921284787794e-03  -1.8725162496087515e-02  -3.9397098444098534e-02  -4.3518721386075203e-02  -3.6233666502650093e-02  -2.9826985231457565e-02  1.2833162462240917e-03  2.0160974840898259e-02  4.2435457179904559e-02  5.2664219063421461e-02  4.6149023404678906e-02  2.0590022672804732e-02  1.9136961930482331e-03  -1.8111911699917604e-02  -4.3239860387774845e-02  -5.2200999085372415e-02  -3.7374113159527295e-02  -2.7153686853740495e-02  4.4757232329090303e-04  2.0160974840898259e-02  3.5203711079510126e-02  5.0890346125072837e-02  5.3013845297180971e-02  2.7999112619709124e-02  -5.5000258804757266e-03  -2.0614036064186200e-02  -4.3459238581683192e-02  -5.7634740580620847e-02  -4.9503249993530576e-02  -3.2051689441614649e-02  2.4861619150220449e-03  2.4797863322380227e-02  3.5203711079510126e-02  3.8778480359992748e-02  4.3841986616911278e-02  3.1261588895333599e-02  -1.4089477831179113e-03  -3.1416980087186262e-02  -4.8946924776523043e-02  -4.5718511688486570e-02  -4.3160202138352387e-02  -2.8258032194060024e-02  9.4075204389341250e-05  3.6881095160370164e-02  4.3422221102803707e-02  3.8778480359992748e-02  4.2157606866349416e-02  2.9554111246716811e-02  2.4839212255241224e-03  -2.9034898352738356e-02  -5.2184760494971817e-02  -5.5866949392663852e-02  -4.7455400319844999e-02  -1.6025106219084616e-02  -1.4343722818769651e-03  2.9966909253779324e-02  4.9471689025773410e-02  4.9757353558931822e-02  4.2157606866349416e-02  2.3742613436975913e-02  -2.1576563908552687e-03  -2.3077405767383912e-02  -4.0568432654176180e-02  -5.1532820869293762e-02  -4.5018737836014573e-02  -2.0806689107158046e-02  1.8552493553257413e-04  2.4021500574364370e-02  3.5283688502606055e-02  5.6214423069754660e-02  4.1757615945299906e-02  2.3742613436975913e-02  4.1981839301095157e-03  -1.9926072268087611e-02  -3.7617142111055081e-02  -4.7709305519396089e-02  -3.9403502839071403e-02  -2.1687912587312775e-02  -2.4255214043706678e-04  1.6129106007477165e-02  3.6745325173042805e-02  5.1205712336277985e-02  3.5199459941407121e-02  2.4868094938320304e-02  4.1981839301095157e-03  -2.5368790900092985e-02  -4.7819116133204352e-02  -5.2336024611539009e-02  -3.8642290389370726e-02  -2.6258768004362679e-02  1.7693781256267551e-03  1.9896188685929388e-02  4.5860767901486375e-02  5.1287871281380723e-02  4.3384877309721882e-02  2.1822814054283331e-02  6.1370673895423831e-03  -2.5368790900092985e-02  -3.9965953136841682e-02  2.1457447191043871e-01  4.3028688354511391e-01  5.1441592073629272e-01  4.5610401115577409e-01  2.9684229880063845e-01  5.4352370660334416e-02  -2.1870539224073135e-01  -4.3145859255346630e-01  -5.1728825850605897e-01  -4.5942173144569515e-01  -2.9956437683501075e-01  -3.9965953136841682e-02  -4.6321857052241087e-02  4.2359406748487022e-01  7.7507698831216520e-01  8.9975036981926348e-01  8.1564004410244328e-01  5.1590327735468622e-01  4.5681106305257714e-02  -4.3224705961011678e-01  -7.7136691765641330e-01  -9.0003387506325683e-01  -8.1269012956538844e-01  -5.1532018316622841e-01  -4.6321857052241087e-02  -4.0621466045475674e-02  5.1015089337664932e-01  8.9750162995976246e-01  1.0619204924895491e+00  9.5447223694973504e-01  5.8296015169567983e-01  3.0229256883564277e-02  -5.1734767332529119e-01  -8.9476105864921329e-01  -1.0558450394111363e+00  -9.5036325210734662e-01  -5.8401274195660846e-01  -4.0621466045475674e-02  -1.6879504302382695e-02  4.5718074316798479e-01  8.1826156780605297e-01  9.5686430603783756e-01  8.3385353697930709e-01  4.9948055826170473e-01  2.0870740115800195e-02  -4.5561066639216657e-01  -8.1768149372646681e-01  -9.5613382604371555e-01  -8.3704366048039436e-01  -5.0611438420802546e-01  -1.6879504302382695e-02  -5.2767865385009306e-04  3.0034118745103960e-01  5.1514717582786973e-01  5.8361875251143625e-01  5.0437971104195756e-01  2.9451142190306218e-01  4.2923690808378745e-03  -3.0053935149829181e-01  -5.2028190089504311e-01  -5.8715039708613603e-01  -5.0275850057211946e-01  -3.0130414437349079e-01  -5.2767865385009306e-04  2.4907879433789974e-02  4.5453170116661050e-02  4.5530037653559716e-02  3.9215573228391573e-02  2.6782216783746871e-02  2.0087345072414015e-03  -2.0227212852286684e-02  -4.7151946125287503e-02  -4.0083941730110512e-02  -2.6357021263329169e-02  -1.6016710462034102e-02  -2.8669027686495812e-03  2.4907879433789974e-02  5.2791739872023367e-02  -2.1712593727291921e-01  -4.3076545427082652e-01  -5.0933863865471285e-01  -4.6218658095807341e-01  -3.0135875162972431e-01  -4.2416094445416691e-02  2.2021136539295075e-01  4.3412667938852550e-01  5.1662999697353473e-01  4.5445989890548394e-01  2.9114197220407162e-01  5.2791739872023367e-02  4.4764184979266854e-02  -4.2768238091084337e-01  -7.7065905224525366e-01  -8.9955600206945951e-01  -8.1754755745406715e-01  -5.1597077410921677e-01  -5.1811820521477987e-02  4.3588676802890608e-01  7.7308159843185453e-01  9.0528962003414182e-01  8.1300239644936367e-01  5.1685251883401173e-01  4.4764184979266854e-02  3.0654409156035324e-02  -5.1264493372539288e-01  -9.0458861888035091e-01  -1.0558573435258995e+00  -9.5490009033403667e-01  -5.9067926975868534e-01  -3.9650063874887238e-02  5.1318081186193865e-01  9.0031139272690464e-01  1.0625543131328747e+00  9.6319461974036957e-01  5.8759559446199494e-01  3.0654409156035324e-02  1.4548593343733280e-02  -4.5774539707947842e-01  -8.1185160922594146e-01  -9.5140127167698163e-01  -8.3991314255750293e-01  -5.0990746636278383e-01  -2.442756697018797