<?xml version="1.0"?>
<VTKFile type="UnstructuredGrid"  version="0.1"  >
<UnstructuredGrid>
<Piece  NumberOfPoints="2197" NumberOfCells="10368">
<Points>
<DataArray  type="Float64"  NumberOfComponents="3"  format="ascii">-3.141592653589793 -3.141592653589793 -3.141592653589793  -2.617993877991494 -3.141592653589793 -3.141592653589793  -2.094395102393196 -3.141592653589793 -3.141592653589793  -1.570796326794897 -3.141592653589793 -3.141592653589793  -1.047197551196598 -3.141592653589793 -3.141592653589793  -0.5235987755982987 -3.141592653589793 -3.141592653589793  0 -3.141592653589793 -3.141592653589793  0.5235987755982987 -3.141592653589793 -3.141592653589793  1.047197551196597 -3.141592653589793 -3.141592653589793  1.570796326794897 -3.141592653589793 -3.141592653589793  2.094395102393196 -3.141592653589793 -3.141592653589793  2.617993877991494 -3.141592653589793 -3.141592653589793  3.141592653589793 -3.141592653589793 -3.141592653589793  -3.141592653589793 -2.617993877991494 -3.141592653589793  -2.617993877991494 -2.617993877991494 -3.141592653589793  -2.094395102393196 -2.617993877991494 -3.141592653589793  -1.570796326794897 -2.617993877991494 -3.141592653589793  -1.047197551196598 -2.617993877991494 -3.141592653589793  -0.5235987755982987 -2.617993877991494 -3.141592653589793  0 -2.617993877991494 -3.141592653589793  0.5235987755982987 -2.617993877991494 -3.141592653589793  1.047197551196597 -2.617993877991494 -3.141592653589793  1.570796326794897 -2.617993877991494 -3.141592653589793  2.094395102393196 -2.617993877991494 -3.141592653589793  2.617993877991494 -2.617993877991494 -3.141592653589793  3.141592653589793 -2.617993877991494 -3.141592653589793  -3.141592653589793 -2.094395102393196 -3.141592653589793  -2.617993877991494 -2.094395102393196 -3.141592653589793  -2.094395102393196 -2.094395102393196 -3.141592653589793  -1.570796326794897 -2.094395102393196 -3.141592653589793  -1.047197551196598 -2.094395102393196 -3.141592653589793  -0.5235987755982987 -2.094395102393196 -3.141592653589793  0 -2.094395102393196 -3.141592653589793  0.5235987755982987 -2.094395102393196 -3.141592653589793  1.047197551196597 -2.094395102393196 -3.141592653589793  1.570796326794897 -2.094395102393196 -3.141592653589793  2.094395102393196 -2.094395102393196 -3.141592653589793  2.617993877991494 -2.094395102393196 -3.141592653589793  3.141592653589793 -2.094395102393196 -3.141592653589793  -3.141592653589793 -1.570796326794897 -3.141592653589793  -2.617993877991494 -1.570796326794897 -3.141592653589793  -2.094395102393196 -1.570796326794897 -3.141592653589793  -1.570796326794897 -1.570796326794897 -3.141592653589793  -1.047197551196598 -1.570796326794897 -3.141592653589793  -0.5235987755982987 -1.570796326794897 -3.141592653589793  0 -1.570796326794897 -3.141592653589793  0.5235987755982987 -1.570796326794897 -3.141592653589793  1.047197551196597 -1.570796326794897 -3.141592653589793  1.570796326794897 -1.570796326794897 -3.141592653589793  2.094395102393196 -1.570796326794897 -3.141592653589793  2.617993877991494 -1.570796326794897 -3.141592653589793  3.141592653589793 -1.570796326794897 -3.141592653589793  -3.141592653589793 -1.047197551196598 -3.141592653589793  -2.617993877991494 -1.047197551196598 -3.141592653589793  -2.094395102393196 -1.047197551196598 -3.141592653589793  -1.570796326794897 -1.047197551196598 -3.141592653589793  -1.047197551196598 -1.047197551196598 -3.141592653589793  -0.5235987755982987 -1.047197551196598 -3.141592653589793  0 -1.047197551196598 -3.141592653589793  0.5235987755982987 -1.047197551196598 -3.141592653589793  1.047197551196597 -1.047197551196598 -3.141592653589793  1.570796326794897 -1.047197551196598 -3.141592653589793  2.094395102393196 -1.047197551196598 -3.141592653589793  2.617993877991494 -1.047197551196598 -3.141592653589793  3.141592653589793 -1.047197551196598 -3.141592653589793  -3.141592653589793 -0.5235987755982987 -3.141592653589793  -2.617993877991494 -0.5235987755982987 -3.141592653589793  -2.094395102393196 -0.5235987755982987 -3.141592653589793  -1.570796326794897 -0.5235987755982987 -3.141592653589793  -1.047197551196598 -0.5235987755982987 -3.141592653589793  -0.5235987755982987 -0.5235987755982987 -3.141592653589793  0 -0.5235987755982987 -3.141592653589793  0.5235987755982987 -0.5235987755982987 -3.141592653589793  1.047197551196597 -0.5235987755982987 -3.141592653589793  1.570796326794897 -0.5235987755982987 -3.141592653589793  2.094395102393196 -0.5235987755982987 -3.141592653589793  2.617993877991494 -0.5235987755982987 -3.141592653589793  3.141592653589793 -0.5235987755982987 -3.141592653589793  -3.141592653589793 0 -3.141592653589793  -2.617993877991494 0 -3.141592653589793  -2.094395102393196 0 -3.141592653589793  -1.570796326794897 0 -3.141592653589793  -1.047197551196598 0 -3.141592653589793  -0.5235987755982987 0 -3.141592653589793  0 0 -3.141592653589793  0.5235987755982987 0 -3.141592653589793  1.047197551196597 0 -3.141592653589793  1.570796326794897 0 -3.141592653589793  2.094395102393196 0 -3.141592653589793  2.617993877991494 0 -3.141592653589793  3.141592653589793 0 -3.141592653589793  -3.141592653589793 0.5235987755982987 -3.141592653589793  -2.617993877991494 0.5235987755982987 -3.141592653589793  -2.094395102393196 0.5235987755982987 -3.141592653589793  -1.570796326794897 0.5235987755982987 -3.141592653589793  -1.047197551196598 0.5235987755982987 -3.141592653589793  -0.5235987755982987 0.5235987755982987 -3.141592653589793  0 0.5235987755982987 -3.141592653589793  0.5235987755982987 0.5235987755982987 -3.141592653589793  1.047197551196597 0.5235987755982987 -3.141592653589793  1.570796326794897 0.5235987755982987 -3.141592653589793  2.094395102393196 0.5235987755982987 -3.141592653589793  2.617993877991494 0.5235987755982987 -3.141592653589793  3.141592653589793 0.5235987755982987 -3.141592653589793  -3.141592653589793 1.047197551196597 -3.141592653589793  -2.617993877991494 1.047197551196597 -3.141592653589793  -2.094395102393196 1.047197551196597 -3.141592653589793  -1.570796326794897 1.047197551196597 -3.141592653589793  -1.047197551196598 1.047197551196597 -3.141592653589793  -0.5235987755982987 1.047197551196597 -3.141592653589793  0 1.047197551196597 -3.141592653589793  0.5235987755982987 1.047197551196597 -3.141592653589793  1.047197551196597 1.047197551196597 -3.141592653589793  1.570796326794897 1.047197551196597 -3.141592653589793  2.094395102393196 1.047197551196597 -3.141592653589793  2.617993877991494 1.047197551196597 -3.141592653589793  3.141592653589793 1.047197551196597 -3.141592653589793  -3.141592653589793 1.570796326794897 -3.141592653589793  -2.617993877991494 1.570796326794897 -3.141592653589793  -2.094395102393196 1.570796326794897 -3.141592653589793  -1.570796326794897 1.570796326794897 -3.141592653589793  -1.047197551196598 1.570796326794897 -3.141592653589793  -0.5235987755982987 1.570796326794897 -3.141592653589793  0 1.570796326794897 -3.141592653589793  0.5235987755982987 1.570796326794897 -3.141592653589793  1.047197551196597 1.570796326794897 -3.141592653589793  1.570796326794897 1.570796326794897 -3.141592653589793  2.094395102393196 1.570796326794897 -3.141592653589793  2.617993877991494 1.570796326794897 -3.141592653589793  3.141592653589793 1.570796326794897 -3.141592653589793  -3.141592653589793 2.094395102393196 -3.141592653589793  -2.617993877991494 2.094395102393196 -3.141592653589793  -2.094395102393196 2.094395102393196 -3.141592653589793  -1.570796326794897 2.094395102393196 -3.141592653589793  -1.047197551196598 2.094395102393196 -3.141592653589793  -0.5235987755982987 2.094395102393196 -3.141592653589793  0 2.094395102393196 -3.141592653589793  0.5235987755982987 2.094395102393196 -3.141592653589793  1.047197551196597 2.094395102393196 -3.141592653589793  1.570796326794897 2.094395102393196 -3.141592653589793  2.094395102393196 2.094395102393196 -3.141592653589793  2.617993877991494 2.094395102393196 -3.141592653589793  3.141592653589793 2.094395102393196 -3.141592653589793  -3.141592653589793 2.617993877991494 -3.141592653589793  -2.617993877991494 2.617993877991494 -3.141592653589793  -2.094395102393196 2.617993877991494 -3.141592653589793  -1.570796326794897 2.617993877991494 -3.141592653589793  -1.047197551196598 2.617993877991494 -3.141592653589793  -0.5235987755982987 2.617993877991494 -3.141592653589793  0 2.617993877991494 -3.141592653589793  0.5235987755982987 2.617993877991494 -3.141592653589793  1.047197551196597 2.617993877991494 -3.141592653589793  1.570796326794897 2.617993877991494 -3.141592653589793  2.094395102393196 2.617993877991494 -3.141592653589793  2.617993877991494 2.617993877991494 -3.141592653589793  3.141592653589793 2.617993877991494 -3.141592653589793  -3.141592653589793 3.141592653589793 -3.141592653589793  -2.617993877991494 3.141592653589793 -3.141592653589793  -2.094395102393196 3.141592653589793 -3.141592653589793  -1.570796326794897 3.141592653589793 -3.141592653589793  -1.047197551196598 3.141592653589793 -3.141592653589793  -0.5235987755982987 3.141592653589793 -3.141592653589793  0 3.141592653589793 -3.141592653589793  0.5235987755982987 3.141592653589793 -3.141592653589793  1.047197551196597 3.141592653589793 -3.141592653589793  1.570796326794897 3.141592653589793 -3.141592653589793  2.094395102393196 3.141592653589793 -3.141592653589793  2.617993877991494 3.141592653589793 -3.141592653589793  3.141592653589793 3.141592653589793 -3.141592653589793  -3.141592653589793 -3.141592653589793 -2.617993877991494  -2.617993877991494 -3.141592653589793 -2.617993877991494  -2.094395102393196 -3.141592653589793 -2.617993877991494  -1.570796326794897 -3.141592653589793 -2.617993877991494  -1.047197551196598 -3.141592653589793 -2.617993877991494  -0.5235987755982987 -3.141592653589793 -2.617993877991494  0 -3.141592653589793 -2.617993877991494  0.5235987755982987 -3.141592653589793 -2.617993877991494  1.047197551196597 -3.141592653589793 -2.617993877991494  1.570796326794897 
[...]
<PointData  Scalars="f_239388"> 
<DataArray  type="Float64"  Name="f_239388"  format="ascii">6.3673593570386627e-02  6.6313506928598678e-02  -2.0589520235137961e-02  2.8835203111307107e-03  1.7490286373162043e-04  -3.8879955316456570e-02  -7.2138671254072209e-02  -3.5917184514029789e-02  -1.3001513546477592e-02  -9.9695653387956557e-04  -2.9833443852301939e-02  5.5420942153186194e-02  6.3673593570386627e-02  4.9125490853909153e-02  -6.8886371422442538e-01  -1.0241754321321950e+00  -1.1507470322764877e+00  -1.0358665239756548e+00  -8.1975579313650615e-01  -5.9439840996293493e-02  6.7695314702045073e-01  1.1371415476059694e+00  1.1221458612353323e+00  9.6331281312677197e-01  8.0779821785515371e-01  4.9125490853909153e-02  6.7582532071086146e-03  -1.1414000813333252e+00  -1.4135522721782743e+00  -1.3474168868472303e+00  -1.6116497681423725e+00  -9.5962329966213078e-01  2.7718935036947050e-02  1.0122346183275850e+00  1.4211112225094575e+00  1.3946213178021938e+00  1.6189595105398717e+00  1.0307898686400307e+00  6.7582532071086146e-03  -8.3207705558042463e-03  -1.1112225561305025e+00  -1.4076597374116846e+00  -1.8168777853778608e+00  -1.3947819506358465e+00  -1.1179410375466512e+00  -6.0696829684324842e-03  1.1569966195126360e+00  1.3470513454124573e+00  1.8028925800689724e+00  1.3428282989581528e+00  1.1552344194275994e+00  -8.3207705558042463e-03  2.6074682590013363e-02  -9.5930333957907299e-01  -1.6217534890469545e+00  -1.3448539596454112e+00  -1.4153282843410406e+00  -1.1423966467686875e+00  8.0710014313501183e-03  1.0414307150309721e+00  1.6198376686616272e+00  1.3851720982219349e+00  1.4139377177992625e+00  1.0099445288796738e+00  2.6074682590013363e-02  -5.5355903293154575e-02  -8.2547829499687009e-01  -1.0284851457853621e+00  -1.1567966147777711e+00  -1.0104493658185620e+00  -6.7482072306106733e-01  4.6167153969781105e-02  8.1776080639267568e-01  9.6076909125103149e-01  1.1131319679456029e+00  1.1350122036556587e+00  6.7740083595772904e-01  -5.5355903293154575e-02  -4.9631973884201638e-02  -4.0758587364154511e-02  -9.0824062051667025e-03  9.3438444224594984e-03  -1.9016940791976324e-02  5.6964984680853620e-02  5.4340139645361357e-02  5.8031674657088868e-02  -2.5688219773604557e-02  4.2493853587692049e-03  -9.8714999104407182e-03  -5.2834254721374117e-02  -4.9631973884201638e-02  -6.4991597054287462e-02  6.7790417980441864e-01  1.1379414354242912e+00  1.1213131006931212e+00  9.6828245148864767e-01  8.1784187623269733e-01  3.8833639369195344e-02  -6.7535006971352407e-01  -1.0176754467663911e+00  -1.1476073514524550e+00  -1.0333033324198067e+00  -8.0876159102983558e-01  -6.4991597054287462e-02  2.3271861236412422e-02  1.0215171785851289e+00  1.4171757966226468e+00  1.3927280066109429e+00  1.6194124474091469e+00  1.0320361660810080e+00  5.5992644783342755e-03  -1.1435270916530302e+00  -1.4155236879360145e+00  -1.3509534945588131e+00  -1.6139284865447920e+00  -9.5890587212796119e-01  2.3271861236412422e-02  -9.5900631545896026e-03  1.1624259170428357e+00  1.3532700403144471e+00  1.8156151112248218e+00  1.3469330185705437e+00  1.1499652619785317e+00  -8.4662427105670086e-03  -1.1197118055272337e+00  -1.3976616544730254e+00  -1.8112968785306243e+00  -1.3923677632893350e+00  -1.1207644626947502e+00  -9.5900631545896026e-03  1.1771932482557732e-02  1.0347415266353519e+00  1.6195997546632657e+00  1.3877668346262664e+00  1.4205409600351464e+00  1.0070245395177537e+00  2.1077992992814914e-02  -9.6740438646917981e-01  -1.5985726180080602e+00  -1.3512991266202157e+00  -1.4130419025399816e+00  -1.1330615023781074e+00  1.1771932482557732e-02  3.6931886515236517e-02  8.2243446106271223e-01  9.6080716413034351e-01  1.1183312776865941e+00  1.1408258908769700e+00  6.8844388546505542e-01  -6.8732762921987017e-02  -8.1058225564845432e-01  -1.0316335270958001e+00  -1.1506465174245337e+00  -1.0133517211883818e+00  -6.7480502629304739e-01  3.6931886515236517e-02  6.3673593570386627e-02  6.6313506928598678e-02  -2.0589520235137961e-02  2.8835203111307107e-03  1.7490286373162043e-04  -3.8879955316456570e-02  -7.2138671254072209e-02  -3.5917184514029789e-02  -1.3001513546477592e-02  -9.9695653387956557e-04  -2.9833443852301939e-02  5.5420942153186194e-02  6.3673593570386627e-02  5.8873159016758200e-02  1.4649931677521311e-02  -3.8962147839597415e-02  -6.1873260906811830e-03  -5.9466655890006014e-02  -5.9453908814800421e-02  -3.7342022090017683e-02  -1.1478421691244465e-02  2.1549003994579100e-02  -7.4490142078061745e-05  4.4578054626931665e-02  8.5523255857671718e-02  5.8873159016758200e-02  -3.8918543242334332e-03  -6.2143904852290521e-01  -8.7848353501687815e-01  -9.7029320246717798e-01  -9.8014676822535052e-01  -6.4633498896182096e-01  -2.8701684520888154e-02  6.2105494072616807e-01  9.1284074466207743e-01  9.5745995167830955e-01  9.0478002256918100e-01  6.6151966204310375e-01  -3.8918543242334332e-03  -2.6340861030412846e-02  -9.1543601507848948e-01  -1.2259101710642841e+00  -1.3835139197431523e+00  -1.4144382889697205e+00  -7.9789306576733188e-01  4.2474602591810511e-02  8.7468715323030966e-01  1.2187928354711792e+00  1.4018988051537904e+00  1.3970382255135954e+00  8.5974447197056314e-01  -2.6340861030412846e-02  1.1539591818102036e-03  -9.5834675871908492e-01  -1.4024432674375078e+00  -1.6200385844053964e+00  -1.3575351639767641e+00  -9.5992126803744138e-01  1.2532902190846381e-02  9.5923876575955325e-01  1.3843222079986324e+00  1.6193739368929041e+00  1.2935021137515270e+00  9.9371792895872546e-01  1.1539591818102036e-03  -4.4428314102674553e-02  -9.1882385535898337e-01  -1.3936164203239649e+00  -1.2889875608986423e+00  -1.3412663110726994e+00  -9.9753636381488442e-01  6.5248611695709446e-02  9.7444845732757535e-01  1.4021436825040403e+00  1.3454929724691966e+00  1.3295408637302686e+00  8.6893146850233405e-01  -4.4428314102674553e-02  -8.1947692401568351e-02  -6.6684328868294607e-01  -8.5518805632315786e-01  -9.8933827903172644e-01  -8.6784299628004313e-01  -5.0013320320983412e-01  6.1585471816320111e-02  6.4928447925823518e-01  8.0662432027353459e-01  9.6354200138999591e-01  9.9669921198251998e-01  5.0492517619543209e-01  -8.1947692401568351e-02  -5.2861569789867106e-02  -4.6245982932051882e-03  1.9896858714609576e-02  -3.3347413528437262e-04  4.6146040126075115e-02  7.9520445839601855e-02  4.0351345617412243e-02  2.4059131576948986e-02  -3.8013275695695896e-02  -1.2112474875990126e-02  -6.4810908335232523e-02  -5.8503864839201815e-02  -5.2861569789867106e-02  -1.7860749281208177e-02  6.1234097618469185e-01  9.0954751193908423e-01  9.5988721539518373e-01  9.1653953093343832e-01  6.7111788166044239e-01  1.2779893111417414e-02  -6.2294719671096255e-01  -8.7038215656313578e-01  -9.5993468014785044e-01  -9.7463788980549837e-01  -6.5170967830115478e-01  -1.7860749281208177e-02  4.0032764194262646e-02  8.7973237429379880e-01  1.2193194099581981e+00  1.4046584686606984e+00  1.3962551308840880e+00  8.5585547009618412e-01  -3.1400048713901306e-02  -9.0889884303508250e-01  -1.2242708388056323e+00  -1.3839774269242802e+00  -1.3981342847764215e+00  -7.9923592135411359e-01  4.0032764194262646e-02  9.5484846314603973e-03  9.6756383943717794e-01  1.3834386613746883e+00  1.6293427265921749e+00  1.2841639418782880e+00  9.9712382171774983e-01  -6.7812256026908982e-03  -9.5755091964795314e-01  -1.3972734964913980e+00  -1.6230948187804612e+00  -1.3570538880076901e+00  -9.5971652407625430e-01  9.5484846314603973e-03  7.1625993415841707e-02  9.7645697118451669e-01  1.4060752471070483e+00  1.3509895852411697e+00  1.3380770084823774e+00  8.7130462428634459e-01  -5.1756290359472892e-02  -9.1138403338063079e-01  -1.3952099959172588e+00  -1.2975200492927526e+00  -1.3401808048448922e+00  -1.0053510442195481e+00  7.1625993415841707e-02  6.8079887187424332e-02  6.6101536605524480e-01  7.9680589431402271e-01  9.6024492781282422e-01  1.0001051760104416e+00  5.0859887188298780e-01  -7.2519537919998586e-02  -6.7486001418233388e-01  -8.4473210617017969e-01  -9.7891976256877078e-01  -8.6995869055582953e-01  -5.0983495756051334e-01  6.8079887187424332e-02  5.8873159016758200e-02  1.4649931677521311e-02  -3.8962147839597415e-02  -6.1873260906811830e-03  -5.9466655890006014e-02  -5.9453908814800421e-02  -3.7342022090017683e-02  -1.1478421691244465e-02  2.1549003994579100e-02  -7.4490142078061745e-05  4.4578054626931665e-02  8.5523255857671718e-02  5.8873159016758200e-02  1.3100882128850563e-02  1.9040442628490174e-02  -2.2094260156632933e-02  -3.3544292233676616e-02  -4.6507818150326119e-02  -4.9289636728660199e-02  -1.9840760105849189e-02  1.5378217995706432e-03  3.2761024694132841e-02  2.0126133283452183e-02  4.5541461825678961e-02  1.1670369949089612e-02  1.3100882128850563e-02  1.5736597049494719e-02  -3.3731321519122665e-01  -5.2791792808833360e-01  -6.1551068161092781e-01  -5.7848739169900920e-01  -3.2038884442440080e-01  -1.0312649005273716e-02  3.2635950608793091e-01  5.3177216911906711e-01  6.4295369525913804e-01  5.6909237102640087e-01  3.3059094219793894e-01  1.5736597049494719e-02  -2.2167169553937740e-02  -5.3771283461172703e-01  -8.1459707345098431e-01  -9.7541765703540284e-01  -8.4397708862558285e-01  -4.3767381483996709e-01  1.4115822568749870e-02  5.3202073583481269e-01  8.1693300717742168e-01  9.7477748890804061e-01  8.2440137346710041e-01  4.6741833881155959e-01  -2.2167169553937740e-02  -2.6484686539049805e-02  -6.3616481226136445e-01  -9.7827842464463732e-01  -1.0452125849667864e+00  -9.0865034975724179e-01  -5.3243035685289619e-01  3.5012068013762145e-02  6.1695600498973990e-01  9.7420235314848147e-01  1.0403695882100241e+00  9.1473503640360843e-01  5.5195028143622860e-01  -2.6484686539049805e-02  -5.5569818872203351e-02  -5.6453733121266481e-01  -8.2287115511642039e-01  -9.1355400530322650e-01  -8.1371003100939154e-01  -4.8699743714314897e-01  5.3314337571342733e-02  5.8662440491170920e-01  8.4890478111409184e-01  9.0369875054971283e-01  8.0321066863183466e-01  4.6422314797070807e-01  -5.5569818872203351e-02  -2.2445054538456858e-02  -3.3112769348331439e-01  -4.7616550572590610e-01  -5.4715990150290750e-01  -4.5255506657644512e-01  -1.9571951247660460e-01  4.8610342198606542e-02  3.0845840156772092e-01  4.3764660477771722e-01  5.2826501182313979e-01  4.9048597557894430e-01  2.0381540439312101e-01  -2.2445054538456858e-02  -2.6856600717942474e-02  -3.8545041435581592e-03  2.8723913472539220e-02  2.5037315576638970e-02  5.4178009168423864e-02  2.4598239205372335e-02  2.4810372944769139e-02  1.4648320504102424e-02  -2.7540451428818846e-02  -3.5357229918050417e-02  -4.5470446013466982e-02  -5.0765805451255162e-02  -2.6856600717942474e-02  -1.3615074218377633e-02  3.2224265012753450e-01  5.2648627140800353e-01  6.4712012204175196e-01  5.6988506659482674e-01  3.3715859041885621e-01  1.2300515085948469e-02  -3.3159056848611951e-01  -5.2658300535607694e-01  -6.0564522482461214e-01  -5.8289639848850650e-01  -3.1174798073361260e-01  -1.3615074218377633e-02  2.4119686985087350e-02  5.1496857130668239e-01  8.1861429045574607e-01  9.7346224137631820e-01  8.1964325621028844e-01  4.6584185530322103e-01  -3.2330687366877296e-02  -5.3834517793943504e-01  -8.1538654488068829e-01  -9.6589807439720032e-01  -8.4177087594396671e-01  -4.3373747392483636e-01  2.4119686985087350e-02  3.6199059016641506e-02  6.1754735177606046e-01  9.7069996328788022e-01  1.0515648221295764e+00  9.0751890720745321e-01  5.4826329092195147e-01  -3.5073289054316018e-02  -6.4239420954056747e-01  -9.7133160662827800e-01  -1.0461910462308532e+00  -9.0416295297695271e-01  -5.3702755885505138e-01  3.6199059016641506e-02  4.7017432165531933e-02  5.8519194569036093e-01  8.4708630671893037e-01  9.0866772916496097e-01  8.1880176875398247e-01  4.5355580457640071e-01  -5.6164882246108917e-02  -5.6366594773415057e-01  -8.2435769093802713e-01  -9.1003759271346940e-01  -8.1596679032410302e-01  -4.9132808424019458e-01  4.7017432165531933e-02  5.5838004033402340e-02  3.0202034698463393e-01  4.3554331525839601e-01  5.3161632818235893e-01  4.9450185362751975e-01  2.0348691009703374e-01  -1.8678353849375204e-02  -3.2684660994155657e-01  -4.7001352298282179e-01  -5.5127179022079542e-01  -4.5446608327642130e-01  -2.0864064441046012e-01  5.5838004033402340e-02  1.3100882128850563e-02  1.9040442628490174e-02  -2.2094260156632933e-02  -3.3544292233676616e-02  -4.6507818150326119e-02  -4.9289636728660199e-02  -1.9840760105849189e-02  1.5378217995706432e-03  3.2761024694132841e-02  2.0126133283452183e-02  4.5541461825678961e-02  1.1670369949089612e-02  1.3100882128850563e-02  6.7161222744431537e-03  -1.3786831753036383e-02  -1.9440631514677086e-02  -1.3666993562095962e-02  -2.0484309110390113e-02  -1.5108875298229156e-02  2.7626157430451316e-04  7.4981377652204783e-04  2.1267138494536993e-02  3.8930024392185805e-02  2.1970758459359026e-02  1.4533902573867942e-02  6.7161222744431537e-03  -9.7844974691703810e-03  -5.0844759015821479e-02  -5.6074563487649415e-02  -5.5203552508076993e-02  -4.2251749792796209e-02  -3.2800100364790493e-03  1.9547648521753117e-02  5.4048252590394807e-02  7.9488504095777443e-02  4.1878141234015412e-02  7.3491669074303365e-03  1.0029755758458051e-02  -9.7844974691703810e-03  -2.9162682245634546e-02  -7.3791536153526488e-02  -7.6707013987921346e-02  -5.7097306339426709e-02  -4.4314639698172327e-04  3.0352424214539309e-02  2.5795066751718169e-02  3.3104087828698003e-02  7.8847324522787657e-02  5.6482586465653462e-02  -4.3979578879056730e-04  -2.5328922492523051e-03  -2.9162682245634546e-02  -3.2950057721294217e-02  -4.9519201866509564e-02  -5.0776160399990014e-02  -6.9877924305515740e-03  5.5893356617145069e-02  5.1928396179171596e-02  4.3401263701618774e-03  4.5441987799187664e-02  5.7862638422311555e-02  3.7408655080048980e-03  -4.7441121060158034e-02  -4.1366825909624733e-02  -3.2950057721294217e-02  -2.4800966834805954e-02  -3.4032747295074418e-04  -3.9018902446402415e-03  4.8855300402969433e-02  9.3517739539899156e-02  4.6383995144882909e-02  2.4513526822341272e-02  4.3055976072622869e-02  -3.6307462765425274e-03  -4.9073673584452762e-02  -8.0597876884926922e-02  -7.3425449651280367e-02  -2.4800966834805954e-02  -1.7357685900674269e-02  -3.2528001817360617e-03  7.4903340731000551e-03  4.7071826429320174e-02  7.5772969159002335e-02  4.9084816771221541e-02  2.1204893220846642e-02  5.4788691281541044e-03  -3.9759842000290903e-02  -4.7850073639534300e-02  -5.5545269739555120e-02  -4.9125394794586087e-02  -1.7357685900674269e-02  1.0148593919582099e-03  1.5924921292226474e-02  2.7958895158410834e-02  3.1074927782409171e-02  2.9702993305187050e-02  9.4224653077703332e-03  5.9120439587217613e-03  -9.5870544519046121e-03  -2.2498109132735977e-02  -4.3534189642077349e-03  -1.6428309475929406e-02  -2.9959622517402786e-02  1.0148593919582099e-03  1.4740193995652510e-02  4.6130515602131619e-02  7.2449464284245813e-02  4.9106899467316396e-02  9.8013675757217724e-03  2.7353460325888765e-03  -4.8017392912414643e-03  -4.8472303552341368e-02  -4.6766009601408642e-02  -3.6250485582669731e-02  -4.4285767323295561e-02  -7.4688990372892116e-04  1.4740193995652510e-02  1.1863878209876775e-02  4.9424860038743960e-02  7.8281704321765289e-02  4.5352479428513545e-02  -8.7926234563949768e-03  -9.3870451008254592e-03  -3.2539428061382047e-02  -7.6433691014652999e-02  -7.3394640920617496e-02  -5.6679481318395564e-02  3.6103762393036214e-03  3.9618595856889989e-02  1.1863878209876775e-02  -1.2297386613389132e-04  4.8216308080967621e-02  5.5429299245003637e-02  -2.8821795584873231e-03  -5.1654116380474367e-02  -5.6120793801541606e-02  -3.1994990234871318e-02  -4.5011160204558372e-02  -4.6021655983411937e-02  -1.4431410408012051e-03  6.7671985105580090e-02  4.5326816595554979e-02  -1.2297386613389132e-04  2.5574725374463234e-02  4.7041761042531757e-02  5.2368709031508460e-03  -5.1848070524142781e-02  -7.7180535033482420e-02  -7.5806595811439767e-02  -4.0867904937824752e-02  -2.7318070747205324e-03  -2.0966454576614854e-03  4.4866822178021466e-02  7.2783178970223406e-02  4.4845971389325945e-02  2.5574725374463234e-02  2.0518306200982283e-02  -3.5200820613053127e-03  -3.7171712594112449e-02  -4.1072824222767083e-02  -4.8790967598431850e-02  -5.1919726294209566e-02  -7.6602429508599032e-03  -2.5675050227054946e-04  1.4922163762721156e-02  3.1312802082910762e-02  7.8226264836853729e-02  4.6255602376802221e-02  2.0518306200982283e-02  6.7161222744431537e-03  -1.3786831753036383e-02  -1.9440631514677086e-02  -1.3666993562095962e-02  -2.0484309110390113e-02  -1.5108875298229156e-02  2.7626157430451316e-04  7.4981377652204783e-04  2.1267138494536993e-02  3.8930024392185805e-02  2.1970758459359026e-02  1.4533902573867942e-02  6.7161222744431537e-03  -2.1889284897644235e-02  -4.6430825825599431e-02  -5.3658907952708848e-02  -3.5419000852815907e-02  -3.4851997421370885e-02  1.5136659382088805e-02  1.5237645091227225e-02  3.3231424932759303e-02  6.1317877403974812e-02  2.6193237205259078e-02  2.5951180754893343e-02  2.7449963495684397e-03  -2.1889284897644235e-02  -2.2361151728487572e-02  2.0249680577206849e-01  4.9755075941923321e-01  5.3161821320171487e-01  4.4071685304927866e-01  3.0362375537272218e-01  5.1451884333755908e-02  -2.0964036159776434e-01  -4.6760201156375691e-01  -5.6237968812398664e-01  -4.7293916034203132e-01  -3.2874359447549933e-01  -2.2361151728487572e-02  -5.1283296511202087e-02  4.4972763359954626e-01  8.2104757258136651e-01  9.0929419654368082e-01  8.4292627703585921e-01  5.8591114863363636e-01  4.8338203811658369e-02  -4.9754776588833061e-01  -8.1445199534029933e-01  -9.1062592735485226e-01  -8.1703170726525975e-01  -5.6060601206047700e-01  -5.1283296511202087e-02  -2.7187246845393583e-02  5.5529582083724249e-01  9.0625325038573845e-01  1.0530423949438472e+00  9.7030660288071191e-01  6.1402934851155921e-01  1.9517134888156387e-02  -5.3655027577663728e-01  -9.0103470907649863e-01  -1.0427288206138861e+00  -9.7502473073245643e-01  -6.3162165968539652e-01  -2.7187246845393583e-02  -1.5535825919708028e-02  4.6872446200673373e-01  8.2635180881939185e-01  9.8357201716725196e-01  8.0926591294338102e-01  5.1492518435775558e-01  2.0872881462838468e-02  -4.3747721894937619e-01  -8.5454606055564886e-01  -9.7188539079837788e-01  -8.1519517880197201e-01  -5.3283626843663157e-01  -1.5535825919708028e-02  8.0183708345274891e-03  3.2916528439579368e-01  5.6368189922027756e-01  6.3161490023218725e-01  5.3068643811107830e-01  3.2006505781666794e-01  1.2547266960170138e-04  -3.0952877351692487e-01  -5.9374738005744143e-01  -6.1880913013665717e-01  -5.1693734702505167e-01  -3.3805537324450413e-01  8.0183708345274891e-03  1.9106908117021679e-02  3.2354495183613767e-02  4.7690728571489482e-02  2.3135483871087055e-02  3.5596145171711210e-02  -4.8511711621048456e-03  -1.1997878427611948e-02  -4.8982222950249947e-02  -2.7342217204667001e-02  -1.6183563235227003e-02  -1.1262979549370502e-02  4.9204672710481349e-03  1.9106908117021679e-02  5.0790602892488171e-02  -2.0584396158791440e-01  -4.6123495745198345e-01  -5.5584182264252258e-01  -4.7294908141113640e-01  -3.3134722636646408e-01  -3.0533053056380377e-02  2.2219390216153762e-01  4.9972902042231748e-01  5.4279621108306986e-01  4.3431142908943116e-01  2.9369791377388416e-01  5.0790602892488171e-02  4.3641618572429562e-02  -4.9076928698330508e-01  -8.1412010259409673e-01  -9.0993087320993071e-01  -8.2902967179898002e-01  -5.6562897868786988e-01  -5.4599790705997554e-02  4.6999687138078050e-01  8.1968314434051337e-01  9.1624096400890320e-01  8.4153791728960270e-01  5.8647808202124019e-01  4.3641618572429562e-02  2.3798216779768268e-02  -5.3052766118596539e-01  -9.1880477857709719e-01  -1.0416174755474599e+00  -9.8446736532423329e-01  -6.4532463986825894e-01  -2.5521152177877648e-02  5.5739704833669357e-01  9.0748876991809413e-01  1.0585867490036940e+00  9.8243986304004371e-01  6.1883186044345806e-01  2.3798216779768268e-02  1.0755059303991796e-02  -4.4059785109526411e-01  -8.3888837570172881e-01  -9.6367037145919510e-01  -8.1379206765651924e-01  -5.4143955751243533e-01  -2.767768699