<?xml version="1.0"?>
<VTKFile type="UnstructuredGrid"  version="0.1"  >
<UnstructuredGrid>
<Piece  NumberOfPoints="2197" NumberOfCells="10368">
<Points>
<DataArray  type="Float64"  NumberOfComponents="3"  format="ascii">-3.141592653589793 -3.141592653589793 -3.141592653589793  -2.617993877991494 -3.141592653589793 -3.141592653589793  -2.094395102393196 -3.141592653589793 -3.141592653589793  -1.570796326794897 -3.141592653589793 -3.141592653589793  -1.047197551196598 -3.141592653589793 -3.141592653589793  -0.5235987755982987 -3.141592653589793 -3.141592653589793  0 -3.141592653589793 -3.141592653589793  0.5235987755982987 -3.141592653589793 -3.141592653589793  1.047197551196597 -3.141592653589793 -3.141592653589793  1.570796326794897 -3.141592653589793 -3.141592653589793  2.094395102393196 -3.141592653589793 -3.141592653589793  2.617993877991494 -3.141592653589793 -3.141592653589793  3.141592653589793 -3.141592653589793 -3.141592653589793  -3.141592653589793 -2.617993877991494 -3.141592653589793  -2.617993877991494 -2.617993877991494 -3.141592653589793  -2.094395102393196 -2.617993877991494 -3.141592653589793  -1.570796326794897 -2.617993877991494 -3.141592653589793  -1.047197551196598 -2.617993877991494 -3.141592653589793  -0.5235987755982987 -2.617993877991494 -3.141592653589793  0 -2.617993877991494 -3.141592653589793  0.5235987755982987 -2.617993877991494 -3.141592653589793  1.047197551196597 -2.617993877991494 -3.141592653589793  1.570796326794897 -2.617993877991494 -3.141592653589793  2.094395102393196 -2.617993877991494 -3.141592653589793  2.617993877991494 -2.617993877991494 -3.141592653589793  3.141592653589793 -2.617993877991494 -3.141592653589793  -3.141592653589793 -2.094395102393196 -3.141592653589793  -2.617993877991494 -2.094395102393196 -3.141592653589793  -2.094395102393196 -2.094395102393196 -3.141592653589793  -1.570796326794897 -2.094395102393196 -3.141592653589793  -1.047197551196598 -2.094395102393196 -3.141592653589793  -0.5235987755982987 -2.094395102393196 -3.141592653589793  0 -2.094395102393196 -3.141592653589793  0.5235987755982987 -2.094395102393196 -3.141592653589793  1.047197551196597 -2.094395102393196 -3.141592653589793  1.570796326794897 -2.094395102393196 -3.141592653589793  2.094395102393196 -2.094395102393196 -3.141592653589793  2.617993877991494 -2.094395102393196 -3.141592653589793  3.141592653589793 -2.094395102393196 -3.141592653589793  -3.141592653589793 -1.570796326794897 -3.141592653589793  -2.617993877991494 -1.570796326794897 -3.141592653589793  -2.094395102393196 -1.570796326794897 -3.141592653589793  -1.570796326794897 -1.570796326794897 -3.141592653589793  -1.047197551196598 -1.570796326794897 -3.141592653589793  -0.5235987755982987 -1.570796326794897 -3.141592653589793  0 -1.570796326794897 -3.141592653589793  0.5235987755982987 -1.570796326794897 -3.141592653589793  1.047197551196597 -1.570796326794897 -3.141592653589793  1.570796326794897 -1.570796326794897 -3.141592653589793  2.094395102393196 -1.570796326794897 -3.141592653589793  2.617993877991494 -1.570796326794897 -3.141592653589793  3.141592653589793 -1.570796326794897 -3.141592653589793  -3.141592653589793 -1.047197551196598 -3.141592653589793  -2.617993877991494 -1.047197551196598 -3.141592653589793  -2.094395102393196 -1.047197551196598 -3.141592653589793  -1.570796326794897 -1.047197551196598 -3.141592653589793  -1.047197551196598 -1.047197551196598 -3.141592653589793  -0.5235987755982987 -1.047197551196598 -3.141592653589793  0 -1.047197551196598 -3.141592653589793  0.5235987755982987 -1.047197551196598 -3.141592653589793  1.047197551196597 -1.047197551196598 -3.141592653589793  1.570796326794897 -1.047197551196598 -3.141592653589793  2.094395102393196 -1.047197551196598 -3.141592653589793  2.617993877991494 -1.047197551196598 -3.141592653589793  3.141592653589793 -1.047197551196598 -3.141592653589793  -3.141592653589793 -0.5235987755982987 -3.141592653589793  -2.617993877991494 -0.5235987755982987 -3.141592653589793  -2.094395102393196 -0.5235987755982987 -3.141592653589793  -1.570796326794897 -0.5235987755982987 -3.141592653589793  -1.047197551196598 -0.5235987755982987 -3.141592653589793  -0.5235987755982987 -0.5235987755982987 -3.141592653589793  0 -0.5235987755982987 -3.141592653589793  0.5235987755982987 -0.5235987755982987 -3.141592653589793  1.047197551196597 -0.5235987755982987 -3.141592653589793  1.570796326794897 -0.5235987755982987 -3.141592653589793  2.094395102393196 -0.5235987755982987 -3.141592653589793  2.617993877991494 -0.5235987755982987 -3.141592653589793  3.141592653589793 -0.5235987755982987 -3.141592653589793  -3.141592653589793 0 -3.141592653589793  -2.617993877991494 0 -3.141592653589793  -2.094395102393196 0 -3.141592653589793  -1.570796326794897 0 -3.141592653589793  -1.047197551196598 0 -3.141592653589793  -0.5235987755982987 0 -3.141592653589793  0 0 -3.141592653589793  0.5235987755982987 0 -3.141592653589793  1.047197551196597 0 -3.141592653589793  1.570796326794897 0 -3.141592653589793  2.094395102393196 0 -3.141592653589793  2.617993877991494 0 -3.141592653589793  3.141592653589793 0 -3.141592653589793  -3.141592653589793 0.5235987755982987 -3.141592653589793  -2.617993877991494 0.5235987755982987 -3.141592653589793  -2.094395102393196 0.5235987755982987 -3.141592653589793  -1.570796326794897 0.5235987755982987 -3.141592653589793  -1.047197551196598 0.5235987755982987 -3.141592653589793  -0.5235987755982987 0.5235987755982987 -3.141592653589793  0 0.5235987755982987 -3.141592653589793  0.5235987755982987 0.5235987755982987 -3.141592653589793  1.047197551196597 0.5235987755982987 -3.141592653589793  1.570796326794897 0.5235987755982987 -3.141592653589793  2.094395102393196 0.5235987755982987 -3.141592653589793  2.617993877991494 0.5235987755982987 -3.141592653589793  3.141592653589793 0.5235987755982987 -3.141592653589793  -3.141592653589793 1.047197551196597 -3.141592653589793  -2.617993877991494 1.047197551196597 -3.141592653589793  -2.094395102393196 1.047197551196597 -3.141592653589793  -1.570796326794897 1.047197551196597 -3.141592653589793  -1.047197551196598 1.047197551196597 -3.141592653589793  -0.5235987755982987 1.047197551196597 -3.141592653589793  0 1.047197551196597 -3.141592653589793  0.5235987755982987 1.047197551196597 -3.141592653589793  1.047197551196597 1.047197551196597 -3.141592653589793  1.570796326794897 1.047197551196597 -3.141592653589793  2.094395102393196 1.047197551196597 -3.141592653589793  2.617993877991494 1.047197551196597 -3.141592653589793  3.141592653589793 1.047197551196597 -3.141592653589793  -3.141592653589793 1.570796326794897 -3.141592653589793  -2.617993877991494 1.570796326794897 -3.141592653589793  -2.094395102393196 1.570796326794897 -3.141592653589793  -1.570796326794897 1.570796326794897 -3.141592653589793  -1.047197551196598 1.570796326794897 -3.141592653589793  -0.5235987755982987 1.570796326794897 -3.141592653589793  0 1.570796326794897 -3.141592653589793  0.5235987755982987 1.570796326794897 -3.141592653589793  1.047197551196597 1.570796326794897 -3.141592653589793  1.570796326794897 1.570796326794897 -3.141592653589793  2.094395102393196 1.570796326794897 -3.141592653589793  2.617993877991494 1.570796326794897 -3.141592653589793  3.141592653589793 1.570796326794897 -3.141592653589793  -3.141592653589793 2.094395102393196 -3.141592653589793  -2.617993877991494 2.094395102393196 -3.141592653589793  -2.094395102393196 2.094395102393196 -3.141592653589793  -1.570796326794897 2.094395102393196 -3.141592653589793  -1.047197551196598 2.094395102393196 -3.141592653589793  -0.5235987755982987 2.094395102393196 -3.141592653589793  0 2.094395102393196 -3.141592653589793  0.5235987755982987 2.094395102393196 -3.141592653589793  1.047197551196597 2.094395102393196 -3.141592653589793  1.570796326794897 2.094395102393196 -3.141592653589793  2.094395102393196 2.094395102393196 -3.141592653589793  2.617993877991494 2.094395102393196 -3.141592653589793  3.141592653589793 2.094395102393196 -3.141592653589793  -3.141592653589793 2.617993877991494 -3.141592653589793  -2.617993877991494 2.617993877991494 -3.141592653589793  -2.094395102393196 2.617993877991494 -3.141592653589793  -1.570796326794897 2.617993877991494 -3.141592653589793  -1.047197551196598 2.617993877991494 -3.141592653589793  -0.5235987755982987 2.617993877991494 -3.141592653589793  0 2.617993877991494 -3.141592653589793  0.5235987755982987 2.617993877991494 -3.141592653589793  1.047197551196597 2.617993877991494 -3.141592653589793  1.570796326794897 2.617993877991494 -3.141592653589793  2.094395102393196 2.617993877991494 -3.141592653589793  2.617993877991494 2.617993877991494 -3.141592653589793  3.141592653589793 2.617993877991494 -3.141592653589793  -3.141592653589793 3.141592653589793 -3.141592653589793  -2.617993877991494 3.141592653589793 -3.141592653589793  -2.094395102393196 3.141592653589793 -3.141592653589793  -1.570796326794897 3.141592653589793 -3.141592653589793  -1.047197551196598 3.141592653589793 -3.141592653589793  -0.5235987755982987 3.141592653589793 -3.141592653589793  0 3.141592653589793 -3.141592653589793  0.5235987755982987 3.141592653589793 -3.141592653589793  1.047197551196597 3.141592653589793 -3.141592653589793  1.570796326794897 3.141592653589793 -3.141592653589793  2.094395102393196 3.141592653589793 -3.141592653589793  2.617993877991494 3.141592653589793 -3.141592653589793  3.141592653589793 3.141592653589793 -3.141592653589793  -3.141592653589793 -3.141592653589793 -2.617993877991494  -2.617993877991494 -3.141592653589793 -2.617993877991494  -2.094395102393196 -3.141592653589793 -2.617993877991494  -1.570796326794897 -3.141592653589793 -2.617993877991494  -1.047197551196598 -3.141592653589793 -2.617993877991494  -0.5235987755982987 -3.141592653589793 -2.617993877991494  0 -3.141592653589793 -2.617993877991494  0.5235987755982987 -3.141592653589793 -2.617993877991494  1.047197551196597 -3.141592653589793 -2.617993877991494  1.570796326794897 
[...]
<PointData  Scalars="f_153956"> 
<DataArray  type="Float64"  Name="f_153956"  format="ascii">6.7006952535007505e-02  5.3158381257836812e-02  7.4766677655378833e-03  -9.1574700116497688e-03  1.9459117478274632e-03  -4.2465944145020876e-02  -6.9268794908636536e-02  -3.7359286394179875e-02  -1.4415732154872947e-02  -7.3069363118187436e-03  -3.6744718584506195e-03  4.7267603502577582e-02  6.7006952535007505e-02  4.8740695090832294e-02  -5.9692992648979681e-01  -9.6114369798767285e-01  -1.0581180681155786e+00  -1.0224576684471265e+00  -6.7778707408828143e-01  -5.0514007426782019e-02  5.9432698225340252e-01  1.0141438700385565e+00  1.0597269502378937e+00  9.6448054938400374e-01  6.6673766783127264e-01  4.8740695090832294e-02  5.8630544422442164e-03  -1.0200748089309319e+00  -1.4979096355473132e+00  -1.6678998702572869e+00  -1.6073527833316503e+00  -9.6187058793556823e-01  1.1368866121406196e-03  9.5166710476194949e-01  1.5032575598354125e+00  1.6751126943503849e+00  1.6149567904030397e+00  1.0201735921916966e+00  5.8630544422442164e-03  2.1989641883802921e-03  -1.0485402644807462e+00  -1.6851866045192774e+00  -1.9608418417886202e+00  -1.6741227535908099e+00  -1.0561144623175776e+00  3.9246392012078869e-03  1.0620818841349864e+00  1.6647821396053581e+00  1.9495235597102269e+00  1.6609042178225599e+00  1.0603218238935228e+00  2.1989641883802921e-03  2.0224954665484162e-03  -9.6510425905771879e-01  -1.6139659768409136e+00  -1.6642969476474940e+00  -1.5018487756004941e+00  -1.0190780310199883e+00  6.5025389980371030e-03  1.0257354898445064e+00  1.6177540793919545e+00  1.6660118569956170e+00  1.4992495898219433e+00  9.4996365651031300e-01  2.0224954665484162e-03  -4.7961204636834641e-02  -6.7960955789482669e-01  -1.0176866766070500e+00  -1.0631284337033640e+00  -9.4790763343502826e-01  -5.9224831532421307e-01  4.6664550609593770e-02  6.7534870245430811e-01  9.6262958055573611e-01  1.0550991968642534e+00  1.0124239546610962e+00  5.9436250237942445e-01  -4.7961204636834641e-02  -5.7344060244739578e-02  -4.3189975632733413e-02  -5.7820363903874636e-03  -1.2381578322423774e-03  3.5190792533933584e-03  4.7221990632302160e-02  6.0582121476863558e-02  4.7267699800254435e-02  3.0611394198961092e-03  -6.6904084264578206e-03  -6.0658664183817950e-03  -4.7277592475657965e-02  -5.7344060244739578e-02  -5.3806646961933637e-02  5.9509203166952984e-01  1.0124276636251202e+00  1.0607055571546897e+00  9.6665388643367844e-01  6.7516764189055889e-01  4.0370945120501961e-02  -5.9329216062972623e-01  -9.5369072578450731e-01  -1.0607567985809598e+00  -1.0169033184401408e+00  -6.7156859072518160e-01  -5.3806646961933637e-02  -1.5473071107537136e-03  9.5612093912830609e-01  1.5026083286022589e+00  1.6725918730359848e+00  1.6158570922477768e+00  1.0179746321639958e+00  7.6419068609115811e-03  -1.0197805673578373e+00  -1.4999620365611370e+00  -1.6688917894300945e+00  -1.6092695729662354e+00  -9.6026719374841862e-01  -1.5473071107537136e-03  3.1145604998691879e-04  1.0668230941635988e+00  1.6695881359341804e+00  1.9591382799724399e+00  1.6676913879210460e+00  1.0556575746126393e+00  9.7242018381968093e-04  -1.0577377889456201e+00  -1.6756335325053013e+00  -1.9557834630356166e+00  -1.6731792092502034e+00  -1.0597586779207815e+00  3.1145604998691879e-04  7.6080813106050539e-03  1.0206850483333583e+00  1.6165410968501153e+00  1.6675065571487866e+00  1.5015213000441998e+00  9.4947068669049550e-01  -2.9931667908140386e-03  -9.6741929630668078e-01  -1.5972734369069241e+00  -1.6671215876885808e+00  -1.4982979912332492e+00  -1.0097305782420096e+00  7.6080813106050539e-03  3.7388877548903708e-02  6.7740873288046388e-01  9.6411600585004131e-01  1.0560404310965807e+00  1.0171589598191730e+00  6.0328108310690753e-01  -5.6224132871215193e-02  -6.7111590596155168e-01  -1.0188997526415557e+00  -1.0618867606505524e+00  -9.5218763301437404e-01  -5.9254176068406805e-01  3.7388877548903708e-02  6.7006952535007505e-02  5.3158381257836812e-02  7.4766677655378833e-03  -9.1574700116497688e-03  1.9459117478274632e-03  -4.2465944145020876e-02  -6.9268794908636536e-02  -3.7359286394179875e-02  -1.4415732154872947e-02  -7.3069363118187436e-03  -3.6744718584506195e-03  4.7267603502577582e-02  6.7006952535007505e-02  5.7374573291287354e-02  2.0955629944439776e-02  -1.8320491449216342e-02  -1.7329166220541529e-02  -3.1568353973885965e-02  -6.1562988553805785e-02  -4.4377821085361695e-02  -2.0459664948377532e-02  1.8170628105721107e-02  1.6163763401963134e-02  4.0484271583783329e-02  6.6694387891162582e-02  5.7374573291287354e-02  1.0593273705279576e-02  -5.2886160802969595e-01  -8.3103299762214955e-01  -9.5152354740175937e-01  -9.1047836655934433e-01  -5.5197911544554668e-01  -3.0330666502793469e-02  5.2803675056584254e-01  8.4628745981127973e-01  9.4328497447213766e-01  8.6862817746505039e-01  5.6136064472817926e-01  1.0593273705279576e-02  -1.7295677807988120e-02  -8.4938913552590456e-01  -1.3288108029407422e+00  -1.5385366914867853e+00  -1.3999652693007625e+00  -8.0168642297574688e-01  2.0741761009296127e-02  8.2778903584711816e-01  1.3248807890073093e+00  1.5262125747591107e+00  1.4034057615081890e+00  8.4953358546164071e-01  -1.7295677807988120e-02  -1.8047768319744091e-02  -9.4404164976257088e-01  -1.5254287649176992e+00  -1.7284853051941063e+00  -1.5007327886058419e+00  -9.1486079994692504e-01  2.3079911667105307e-02  9.4496836464761547e-01  1.5396073274120956e+00  1.7294395307722008e+00  1.4723008484953906e+00  9.2042101959999900e-01  -1.8047768319744091e-02  -3.9567531454129418e-02  -8.7758655967044186e-01  -1.4035181799650476e+00  -1.4702571818128787e+00  -1.3434561395083184e+00  -8.6685359035662390e-01  3.6815530894488767e-02  9.0614718294023600e-01  1.3927133324113541e+00  1.4883884298529986e+00  1.3342774000707132e+00  8.1538298198922354e-01  -3.9567531454129418e-02  -6.3836201962373273e-02  -5.6444884369905202e-01  -8.4483241858248703e-01  -9.1968849329583957e-01  -8.1292235361793852e-01  -4.5919797968596415e-01  6.1468051798010792e-02  5.5524273089873277e-01  8.0516187940070494e-01  9.1969118765825364e-01  8.7005739193698606e-01  4.5869098174312184e-01  -6.3836201962373273e-02  -5.4313216308139269e-02  -1.2312399414476016e-02  1.3609212348454679e-02  1.9027616413239596e-02  3.9456209715928371e-02  6.3550026703027826e-02  4.9525390319466706e-02  2.5221731977897954e-02  -1.7628880232502732e-02  -2.1415089225904127e-02  -3.6224618944777791e-02  -5.9553873956652979e-02  -5.4313216308139269e-02  -2.4777430665678644e-02  5.2134097254949152e-01  8.4641907039726594e-01  9.4379228467592924e-01  8.7804964479386061e-01  5.6489574329996917e-01  1.6858290683980138e-02  -5.2969381203542654e-01  -8.2568639449644599e-01  -9.4491494666572073e-01  -9.0782931456457339e-01  -5.5769892024997703e-01  -2.4777430665678644e-02  2.2250393476822967e-02  8.3169412550110133e-01  1.3229899666009430e+00  1.5301722215024207e+00  1.4034826313291382e+00  8.4836417706459777e-01  -2.2574729351811013e-02  -8.4443211262813900e-01  -1.3256467816463651e+00  -1.5400459338459704e+00  -1.3862619925392086e+00  -8.0181506713792672e-01  2.2250393476822967e-02  1.7230254430953010e-02  9.5228839024246026e-01  1.5378726927817126e+00  1.7347492709151502e+00  1.4645593715680671e+00  9.2303421138975017e-01  -2.3205636945549106e-02  -9.4494308475874655e-01  -1.5233340914374653e+00  -1.7301012806062432e+00  -1.4993735364812826e+00  -9.1437951623621128e-01  1.7230254430953010e-02  4.1622918284521589e-02  9.0598036070431642e-01  1.3970069119964483e+00  1.4917366784551995e+00  1.3420469291774435e+00  8.1696946519887670e-01  -4.4446493101825774e-02  -8.7263001767004589e-01  -1.4005175908844694e+00  -1.4775162019484831e+00  -1.3413894921461003e+00  -8.7505461490693226e-01  4.1622918284521589e-02  6.5889392141409445e-02  5.6605536071644613e-01  7.9568820259802742e-01  9.1725349182351457e-01  8.6996012862698158e-01  4.6041095997592196e-01  -5.5885554450545362e-02  -5.6952300998138483e-01  -8.3649879759238210e-01  -9.1341808211764908e-01  -8.1621702479951652e-01  -4.6297444160214268e-01  6.5889392141409445e-02  5.7374573291287354e-02  2.0955629944439776e-02  -1.8320491449216342e-02  -1.7329166220541529e-02  -3.1568353973885965e-02  -6.1562988553805785e-02  -4.4377821085361695e-02  -2.0459664948377532e-02  1.8170628105721107e-02  1.6163763401963134e-02  4.0484271583783329e-02  6.6694387891162582e-02  5.7374573291287354e-02  1.9272774856368278e-02  6.8294204585123298e-03  -1.8188273428902408e-02  -3.6277032858841818e-02  -4.4614881878810943e-02  -5.4472914505533584e-02  -2.3890338756627914e-02  4.3275632438686470e-03  2.7276098698038088e-02  3.3077593048653500e-02  4.4762033663061085e-02  3.0172758378468403e-02  1.9272774856368278e-02  7.9972186666712065e-03  -3.0827760600147108e-01  -5.0877652642424076e-01  -5.9479426242392264e-01  -5.1909560535122623e-01  -3.1032575410594648e-01  -2.1315958431642555e-04  2.9943870932438643e-01  5.0994275003033018e-01  5.9916763781988902e-01  5.2706770931482594e-01  3.0503030476416776e-01  7.9972186666712065e-03  -2.0618870847837048e-02  -5.1378718278209923e-01  -8.3864512854678075e-01  -9.5933572463760808e-01  -8.1938977781779876e-01  -4.5092661830106023e-01  1.3318743843086350e-02  5.1541775622126806e-01  8.3707721685217473e-01  9.5511338317139327e-01  8.1864499413266034e-01  4.5883127911675775e-01  -2.0618870847837048e-02  -3.8493313477136949e-02  -5.9338074201997471e-01  -9.5722494257449697e-01  -1.0534383800053218e+00  -8.9781302337266311e-01  -5.2166939970377590e-01  3.5721270868556712e-02  5.9401603432375083e-01  9.6089965733544402e-01  1.0490796598410048e+00  9.0261692786632464e-01  5.1938402447502363e-01  -3.8493313477136949e-02  -5.0783333360784118e-02  -5.2568163850415583e-01  -8.1810623874751476e-01  -9.0215843126370798e-01  -7.7825402913435993e-01  -4.3671265244646729e-01  5.0466191658970060e-02  5.2547457795088570e-01  8.2158707630668049e-01  8.9538244381752685e-01  7.7237604739200139e-01  4.3734468017067091e-01  -5.0783333360784118e-02  -3.7803272109161713e-02  -3.0562484635833198e-01  -4.6577882259762421e-01  -5.1347681752047636e-01  -4.3139846408220311e-01  -2.0828518630256596e-01  5.3585413569906350e-02  3.0378496201965705e-01  4.5041870960407770e-01  5.1955849714647506e-01  4.3786796358993912e-01  2.1337154425655702e-01  -3.7803272109161713e-02  -2.7954288604214766e-02  1.2331406797302959e-03  2.3522058988690683e-02  3.8265753951393311e-02  4.8886341035282152e-02  4.0513056154390215e-02  2.6047280215373642e-02  2.3753961853323936e-03  -2.1860624668854970e-02  -3.6753418822888767e-02  -4.5688920740771445e-02  -5.4210318332233859e-02  -2.7954288604214766e-02  -2.8124024053466398e-03  2.9780960388767708e-01  5.0644808498616578e-01  6.0116356382659020e-01  5.2925066328874437e-01  3.0904815323562734e-01  4.3863270806616689e-03  -3.0237772505441035e-01  -5.1152666180429607e-01  -5.8584560149698039e-01  -5.2305985685601919e-01  -3.0470916009345533e-01  -2.8124024053466398e-03  2.0567878249111743e-02  5.0159425613024189e-01  8.3967872068304561e-01  9.5382562877014432e-01  8.1458960623640375e-01  4.5751779824411876e-01  -2.5025807482503354e-02  -5.1497919271337855e-01  -8.3661115602437941e-01  -9.5557307603013064e-01  -8.1578015295234774e-01  -4.4866418869472235e-01  2.0567878249111743e-02  3.8331699115486798e-02  5.9230117449756969e-01  9.5807524784963227e-01  1.0567145767553736e+00  8.9938911357240081e-01  5.1587568590081812e-01  -4.5735578891903328e-02  -5.9842123521120905e-01  -9.5355822023580128e-01  -1.0531737560358374e+00  -8.9501527848514018e-01  -5.2496316302267076e-01  3.8331699115486798e-02  4.4629789167961134e-02  5.2583087668079909e-01  8.1878595787397934e-01  8.9744018608539344e-01  7.8405640951560418e-01  4.3126046745742996e-01  -5.1027286663905422e-02  -5.2240627547078611e-01  -8.1807599414373589e-01  -9.0026949262323530e-01  -7.7886984203927068e-01  -4.3906247432016637e-01  4.4629789167961134e-02  5.9058803028088747e-02  2.9683473123719306e-01  4.5207971125360147e-01  5.2231690522104424e-01  4.3793804982425949e-01  2.1407238228798534e-01  -3.3733756127376044e-02  -3.0369740603922563e-01  -4.6313961136422288e-01  -5.1516397184951412e-01  -4.3164376669717164e-01  -2.1831698699437621e-01  5.9058803028088747e-02  1.9272774856368278e-02  6.8294204585123298e-03  -1.8188273428902408e-02  -3.6277032858841818e-02  -4.4614881878810943e-02  -5.4472914505533584e-02  -2.3890338756627914e-02  4.3275632438686470e-03  2.7276098698038088e-02  3.3077593048653500e-02  4.4762033663061085e-02  3.0172758378468403e-02  1.9272774856368278e-02  4.8982089319281547e-03  -1.8681890709063585e-02  -3.5154185697069858e-02  -4.3372382870248492e-02  -3.6984725494179686e-02  -2.0532883079179078e-02  -1.7795042005361590e-04  1.3249985222867024e-02  3.4341735289458608e-02  5.0104133550328764e-02  3.2875976722577693e-02  2.3453501294354254e-02  4.8982089319281547e-03  -1.9336900896484939e-02  -4.5665497609837777e-02  -5.7591919878625976e-02  -4.8981416617085431e-02  -2.8084549481619942e-02  -2.1598694915157474e-03  2.2579822918357612e-02  4.8237321207404725e-02  6.0934076338805029e-02  3.9213811642074457e-02  1.7921000536814835e-02  6.7883173939646121e-03  -1.9336900896484939e-02  -3.9688968396748993e-02  -5.7271175693833019e-02  -5.4892675296325459e-02  -3.6135688651781649e-02  -6.4259039771463690e-04  2.0204373049742524e-02  4.0259760142354946e-02  4.2412169185752573e-02  5.7696917313273935e-02  3.8053311718173992e-02  -1.0957638748049343e-03  -1.3340201757106925e-02  -3.9688968396748993e-02  -4.6529855365214617e-02  -4.4601031106299906e-02  -3.4778045371993645e-02  -4.3291789914116528e-03  3.5095722638280306e-02  4.7619448370955914e-02  3.6157787271353950e-02  4.2244974774136683e-02  3.6370143401838743e-02  1.7455805297367127e-03  -3.2219481047344005e-02  -3.9914600209592518e-02  -4.6529855365214617e-02  -3.5385890061517697e-02  -1.3243940922865504e-02  -3.2569295524383386e-03  3.3492452281420414e-02  6.6083045778701374e-02  5.1339183131753785e-02  4.0229616303667427e-02  2.6969828301340332e-02  -1.6381166647329629e-03  -3.0140619943156748e-02  -5.7669414370363381e-02  -5.7532288043558803e-02  -3.5385890061517697e-02  -2.5749937899833101e-02  -2.3220502845372076e-03  1.7752429116359714e-02  4.3654052796963126e-02  5.9513259689452438e-02  4.4664612012942688e-02  2.3893011739335421e-02  4.5283226810299768e-03  -2.6127251862959718e-02  -4.4282175394808651e-02  -5.7169604162245279e-02  -4.4826449403758593e-02  -2.5749937899833101e-02  1.4560318010730889e-03  2.4589464414530360e-02  3.7404476667412957e-02  4.4796476417279761e-02  3.9522408746921006e-02  1.9202809256114985e-02  3.7557975494860920e-03  -1.6926594909159948e-02  -3.7294654992926897e-02  -3.8062302906769326e-02  -3.3439466517491190e-02  -3.0264014363666204e-02  1.4560318010730889e-03  1.9053652426054835e-02  4.2707009401066302e-02  5.5661634477945067e-02  4.6768747926716855e-02  1.8481739651299827e-02  2.2202227961791083e-03  -1.5740692155009017e-02  -4.3805872921476453e-02  -5.2230146827144185e-02  -3.6398428562044213e-02  -2.8809303824936041e-02  4.5745266901607497e-04  1.9053652426054835e-02  3.1826168932483287e-02  5.1309076454738312e-02  5.7430801066411068e-02  3.0564484022756720e-02  -6.3211897990425444e-03  -1.8478184866640875e-02  -4.2360488402757537e-02  -6.0830698154690034e-02  -5.3429093544606204e-02  -3.5689478501133819e-02  2.8747767988021506e-03  2.5831927212906582e-02  3.1826168932483287e-02  3.2967901327546262e-02  4.4147979407890642e-02  3.4715588904297427e-02  -1.7287935311584134e-03  -3.4660885324567174e-02  -5.0427064920747632e-02  -4.3794334397243964e-02  -4.3411456089334201e-02  -3.0810167483664514e-02  -1.1119592070809320e-04  4.1708568716433782e-02  4.3362798603450083e-02  3.2967901327546262e-02  4.0285934316649855e-02  3.1391398154455886e-02  3.0591415378736679e-03  -3.2123150589489051e-02  -5.6466452435972952e-02  -5.9013639112083294e-02  -4.7284346964335359e-02  -1.3133794376962512e-02  -1.7548052505047004e-03  3.2441713678458897e-02  5.3328948613927799e-02  4.9629646416534771e-02  4.0285934316649855e-02  2.3291644296470394e-02  -2.5573078291566088e-03  -2.3842914173381198e-02  -4.0075435632930444e-02  -5.1903712725013929e-02  -4.6013201915884996e-02  -1.8589883412716817e-02  2.6982852654669099e-05  2.2577919874889482e-02  3.3985570614039333e-02  5.9802865242458383e-02  4.2078036314118647e-02  2.3291644296470394e-02  4.8982089319281547e-03  -1.8681890709063585e-02  -3.5154185697069858e-02  -4.3372382870248492e-02  -3.6984725494179686e-02  -2.0532883079179078e-02  -1.7795042005361590e-04  1.3249985222867024e-02  3.4341735289458608e-02  5.0104133550328764e-02  3.2875976722577693e-02  2.3453501294354254e-02  4.8982089319281547e-03  -2.4886019961963837e-02  -5.0264022416832699e-02  -5.1442532492439026e-02  -3.6770114576628453e-02  -2.6915356253276641e-02  3.9387514915829591e-03  1.8788749283947373e-02  4.5167330673146003e-02  5.2735816922037305e-02  4.1568045427847054e-02  2.1725160003866480e-02  6.6259126802017633e-03  -2.4886019961963837e-02  -3.7992101861060099e-02  2.1309077306706692e-01  4.4147657124699463e-01  5.2061172488883878e-01  4.5351620585115965e-01  2.9887181147195102e-01  5.7012874920329581e-02  -2.1805068618860102e-01  -4.3942715209727079e-01  -5.2525564446335382e-01  -4.6199212772072162e-01  -3.0491643777804500e-01  -3.7992101861060099e-02  -4.6400572068873366e-02  4.2936053009419145e-01  7.8288152897288998e-01  8.9864756496200104e-01  8.1895451034671918e-01  5.2604138128453470e-01  4.4342621850424861e-02  -4.4335518200434881e-01  -7.7831732506948892e-01  -9.0000721256531491e-01  -8.1445717211649793e-01  -5.2371617627208422e-01  -4.6400572068873366e-02  -3.9507924260102488e-02  5.1762820725051384e-01  8.9688867705262743e-01  1.0591280556106939e+00  9.5829584514629129e-01  5.8921281885260335e-01  2.6718935252662172e-02  -5.2382186694155508e-01  -8.9291164447736904e-01  -1.0520262477112792e+00  -9.5406106296159054e-01  -5.9119167866182687e-01  -3.9507924260102488e-02  -1.5668363802277072e-02  4.5948020204374335e-01  8.2097055160351740e-01  9.6137377084739506e-01  8.3214668919444645e-01  5.0208965387480431e-01  1.9954241843874711e-02  -4.5260680807306741e-01  -8.2226789837576419e-01  -9.6016656060517946e-01  -8.3607319130733615e-01  -5.1061977053410446e-01  -1.5668363802277072e-02  9.2729597711556650e-06  3.0573004779455337e-01  5.2399944471360038e-01  5.9088055295746289e-01  5.0882514538253276e-01  2.9863955826348126e-01  3.6609591790492447e-03  -3.0292803084269393e-01  -5.3160119747033552e-01  -5.9369662572731852e-01  -5.0521759099623087e-01  -3.0762806460565284e-01  9.2729597711556650e-06  2.4149078766142883e-02  4.4598066553254524e-02  4.5241741452930799e-02  3.7393344961989289e-02  2.7872630426625050e-02  1.5610101965348776e-03  -1.8577593227107968e-02  -5.0249917128773129e-02  -3.5670493275413433e-02  -2.2957614602244818e-02  -1.3962690751848427e-02  -1.6362246935197784e-03  2.4149078766142883e-02  5.5348395441595366e-02  -2.1617897588768520e-01  -4.3777284984687370e-01  -5.1689897584189504e-01  -4.6468059047360055e-01  -3.0680633188641993e-01  -4.1757296765777906e-02  2.2168676901544335e-01  4.4479127040944699e-01  5.2438185966676465e-01  4.5114882288035113e-01  2.9184759984239395e-01  5.5348395441595366e-02  4.2879639797346061e-02  -4.3787603767317590e-01  -7.7760651495686717e-01  -8.9953237884293258e-01  -8.2073658889900136e-01  -5.2500478614125579e-01  -5.2044484319748494e-02  4.4361429269985542e-01  7.8088337665112850e-01  9.0479494369575475e-01  8.1602728829445759e-01  5.2718404785607620e-01  4.2879639797346061e-02  2.7809610577444670e-02  -5.1871797773358053e-01  -9.0456240567931401e-01  -1.0517247085579000e+00  -9.5959753951128790e-01  -5.9960387836934759e-01  -3.8007502927698486e-02  5.2055097318506116e-01  8.9972342137868955e-01  1.0604276832019874e+00  9.6824899407212528e-01  5.9440222576018209e-01  2.7809610577444670e-02  1.2594336103291342e-02  -4.5515376841121269e-01  -8.1479404424862234e-01  -9.5449875699538655e-01  -8.3862111461617350e-01  -5.1546432285256927e-01  -2.4387441451138168e-