<?xml version="1.0"?>
<VTKFile type="UnstructuredGrid"  version="0.1"  >
<UnstructuredGrid>
<Piece  NumberOfPoints="2197" NumberOfCells="10368">
<Points>
<DataArray  type="Float64"  NumberOfComponents="3"  format="ascii">-3.141592653589793 -3.141592653589793 -3.141592653589793  -2.617993877991494 -3.141592653589793 -3.141592653589793  -2.094395102393196 -3.141592653589793 -3.141592653589793  -1.570796326794897 -3.141592653589793 -3.141592653589793  -1.047197551196598 -3.141592653589793 -3.141592653589793  -0.5235987755982987 -3.141592653589793 -3.141592653589793  0 -3.141592653589793 -3.141592653589793  0.5235987755982987 -3.141592653589793 -3.141592653589793  1.047197551196597 -3.141592653589793 -3.141592653589793  1.570796326794897 -3.141592653589793 -3.141592653589793  2.094395102393196 -3.141592653589793 -3.141592653589793  2.617993877991494 -3.141592653589793 -3.141592653589793  3.141592653589793 -3.141592653589793 -3.141592653589793  -3.141592653589793 -2.617993877991494 -3.141592653589793  -2.617993877991494 -2.617993877991494 -3.141592653589793  -2.094395102393196 -2.617993877991494 -3.141592653589793  -1.570796326794897 -2.617993877991494 -3.141592653589793  -1.047197551196598 -2.617993877991494 -3.141592653589793  -0.5235987755982987 -2.617993877991494 -3.141592653589793  0 -2.617993877991494 -3.141592653589793  0.5235987755982987 -2.617993877991494 -3.141592653589793  1.047197551196597 -2.617993877991494 -3.141592653589793  1.570796326794897 -2.617993877991494 -3.141592653589793  2.094395102393196 -2.617993877991494 -3.141592653589793  2.617993877991494 -2.617993877991494 -3.141592653589793  3.141592653589793 -2.617993877991494 -3.141592653589793  -3.141592653589793 -2.094395102393196 -3.141592653589793  -2.617993877991494 -2.094395102393196 -3.141592653589793  -2.094395102393196 -2.094395102393196 -3.141592653589793  -1.570796326794897 -2.094395102393196 -3.141592653589793  -1.047197551196598 -2.094395102393196 -3.141592653589793  -0.5235987755982987 -2.094395102393196 -3.141592653589793  0 -2.094395102393196 -3.141592653589793  0.5235987755982987 -2.094395102393196 -3.141592653589793  1.047197551196597 -2.094395102393196 -3.141592653589793  1.570796326794897 -2.094395102393196 -3.141592653589793  2.094395102393196 -2.094395102393196 -3.141592653589793  2.617993877991494 -2.094395102393196 -3.141592653589793  3.141592653589793 -2.094395102393196 -3.141592653589793  -3.141592653589793 -1.570796326794897 -3.141592653589793  -2.617993877991494 -1.570796326794897 -3.141592653589793  -2.094395102393196 -1.570796326794897 -3.141592653589793  -1.570796326794897 -1.570796326794897 -3.141592653589793  -1.047197551196598 -1.570796326794897 -3.141592653589793  -0.5235987755982987 -1.570796326794897 -3.141592653589793  0 -1.570796326794897 -3.141592653589793  0.5235987755982987 -1.570796326794897 -3.141592653589793  1.047197551196597 -1.570796326794897 -3.141592653589793  1.570796326794897 -1.570796326794897 -3.141592653589793  2.094395102393196 -1.570796326794897 -3.141592653589793  2.617993877991494 -1.570796326794897 -3.141592653589793  3.141592653589793 -1.570796326794897 -3.141592653589793  -3.141592653589793 -1.047197551196598 -3.141592653589793  -2.617993877991494 -1.047197551196598 -3.141592653589793  -2.094395102393196 -1.047197551196598 -3.141592653589793  -1.570796326794897 -1.047197551196598 -3.141592653589793  -1.047197551196598 -1.047197551196598 -3.141592653589793  -0.5235987755982987 -1.047197551196598 -3.141592653589793  0 -1.047197551196598 -3.141592653589793  0.5235987755982987 -1.047197551196598 -3.141592653589793  1.047197551196597 -1.047197551196598 -3.141592653589793  1.570796326794897 -1.047197551196598 -3.141592653589793  2.094395102393196 -1.047197551196598 -3.141592653589793  2.617993877991494 -1.047197551196598 -3.141592653589793  3.141592653589793 -1.047197551196598 -3.141592653589793  -3.141592653589793 -0.5235987755982987 -3.141592653589793  -2.617993877991494 -0.5235987755982987 -3.141592653589793  -2.094395102393196 -0.5235987755982987 -3.141592653589793  -1.570796326794897 -0.5235987755982987 -3.141592653589793  -1.047197551196598 -0.5235987755982987 -3.141592653589793  -0.5235987755982987 -0.5235987755982987 -3.141592653589793  0 -0.5235987755982987 -3.141592653589793  0.5235987755982987 -0.5235987755982987 -3.141592653589793  1.047197551196597 -0.5235987755982987 -3.141592653589793  1.570796326794897 -0.5235987755982987 -3.141592653589793  2.094395102393196 -0.5235987755982987 -3.141592653589793  2.617993877991494 -0.5235987755982987 -3.141592653589793  3.141592653589793 -0.5235987755982987 -3.141592653589793  -3.141592653589793 0 -3.141592653589793  -2.617993877991494 0 -3.141592653589793  -2.094395102393196 0 -3.141592653589793  -1.570796326794897 0 -3.141592653589793  -1.047197551196598 0 -3.141592653589793  -0.5235987755982987 0 -3.141592653589793  0 0 -3.141592653589793  0.5235987755982987 0 -3.141592653589793  1.047197551196597 0 -3.141592653589793  1.570796326794897 0 -3.141592653589793  2.094395102393196 0 -3.141592653589793  2.617993877991494 0 -3.141592653589793  3.141592653589793 0 -3.141592653589793  -3.141592653589793 0.5235987755982987 -3.141592653589793  -2.617993877991494 0.5235987755982987 -3.141592653589793  -2.094395102393196 0.5235987755982987 -3.141592653589793  -1.570796326794897 0.5235987755982987 -3.141592653589793  -1.047197551196598 0.5235987755982987 -3.141592653589793  -0.5235987755982987 0.5235987755982987 -3.141592653589793  0 0.5235987755982987 -3.141592653589793  0.5235987755982987 0.5235987755982987 -3.141592653589793  1.047197551196597 0.5235987755982987 -3.141592653589793  1.570796326794897 0.5235987755982987 -3.141592653589793  2.094395102393196 0.5235987755982987 -3.141592653589793  2.617993877991494 0.5235987755982987 -3.141592653589793  3.141592653589793 0.5235987755982987 -3.141592653589793  -3.141592653589793 1.047197551196597 -3.141592653589793  -2.617993877991494 1.047197551196597 -3.141592653589793  -2.094395102393196 1.047197551196597 -3.141592653589793  -1.570796326794897 1.047197551196597 -3.141592653589793  -1.047197551196598 1.047197551196597 -3.141592653589793  -0.5235987755982987 1.047197551196597 -3.141592653589793  0 1.047197551196597 -3.141592653589793  0.5235987755982987 1.047197551196597 -3.141592653589793  1.047197551196597 1.047197551196597 -3.141592653589793  1.570796326794897 1.047197551196597 -3.141592653589793  2.094395102393196 1.047197551196597 -3.141592653589793  2.617993877991494 1.047197551196597 -3.141592653589793  3.141592653589793 1.047197551196597 -3.141592653589793  -3.141592653589793 1.570796326794897 -3.141592653589793  -2.617993877991494 1.570796326794897 -3.141592653589793  -2.094395102393196 1.570796326794897 -3.141592653589793  -1.570796326794897 1.570796326794897 -3.141592653589793  -1.047197551196598 1.570796326794897 -3.141592653589793  -0.5235987755982987 1.570796326794897 -3.141592653589793  0 1.570796326794897 -3.141592653589793  0.5235987755982987 1.570796326794897 -3.141592653589793  1.047197551196597 1.570796326794897 -3.141592653589793  1.570796326794897 1.570796326794897 -3.141592653589793  2.094395102393196 1.570796326794897 -3.141592653589793  2.617993877991494 1.570796326794897 -3.141592653589793  3.141592653589793 1.570796326794897 -3.141592653589793  -3.141592653589793 2.094395102393196 -3.141592653589793  -2.617993877991494 2.094395102393196 -3.141592653589793  -2.094395102393196 2.094395102393196 -3.141592653589793  -1.570796326794897 2.094395102393196 -3.141592653589793  -1.047197551196598 2.094395102393196 -3.141592653589793  -0.5235987755982987 2.094395102393196 -3.141592653589793  0 2.094395102393196 -3.141592653589793  0.5235987755982987 2.094395102393196 -3.141592653589793  1.047197551196597 2.094395102393196 -3.141592653589793  1.570796326794897 2.094395102393196 -3.141592653589793  2.094395102393196 2.094395102393196 -3.141592653589793  2.617993877991494 2.094395102393196 -3.141592653589793  3.141592653589793 2.094395102393196 -3.141592653589793  -3.141592653589793 2.617993877991494 -3.141592653589793  -2.617993877991494 2.617993877991494 -3.141592653589793  -2.094395102393196 2.617993877991494 -3.141592653589793  -1.570796326794897 2.617993877991494 -3.141592653589793  -1.047197551196598 2.617993877991494 -3.141592653589793  -0.5235987755982987 2.617993877991494 -3.141592653589793  0 2.617993877991494 -3.141592653589793  0.5235987755982987 2.617993877991494 -3.141592653589793  1.047197551196597 2.617993877991494 -3.141592653589793  1.570796326794897 2.617993877991494 -3.141592653589793  2.094395102393196 2.617993877991494 -3.141592653589793  2.617993877991494 2.617993877991494 -3.141592653589793  3.141592653589793 2.617993877991494 -3.141592653589793  -3.141592653589793 3.141592653589793 -3.141592653589793  -2.617993877991494 3.141592653589793 -3.141592653589793  -2.094395102393196 3.141592653589793 -3.141592653589793  -1.570796326794897 3.141592653589793 -3.141592653589793  -1.047197551196598 3.141592653589793 -3.141592653589793  -0.5235987755982987 3.141592653589793 -3.141592653589793  0 3.141592653589793 -3.141592653589793  0.5235987755982987 3.141592653589793 -3.141592653589793  1.047197551196597 3.141592653589793 -3.141592653589793  1.570796326794897 3.141592653589793 -3.141592653589793  2.094395102393196 3.141592653589793 -3.141592653589793  2.617993877991494 3.141592653589793 -3.141592653589793  3.141592653589793 3.141592653589793 -3.141592653589793  -3.141592653589793 -3.141592653589793 -2.617993877991494  -2.617993877991494 -3.141592653589793 -2.617993877991494  -2.094395102393196 -3.141592653589793 -2.617993877991494  -1.570796326794897 -3.141592653589793 -2.617993877991494  -1.047197551196598 -3.141592653589793 -2.617993877991494  -0.5235987755982987 -3.141592653589793 -2.617993877991494  0 -3.141592653589793 -2.617993877991494  0.5235987755982987 -3.141592653589793 -2.617993877991494  1.047197551196597 -3.141592653589793 -2.617993877991494  1.570796326794897 
[...]
<PointData  Scalars="f_285880"> 
<DataArray  type="Float64"  Name="f_285880"  format="ascii">5.3339667273454155e-02  6.2925980541889220e-02  -3.6387224527452362e-02  1.3442839434974461e-02  -4.6442855047388789e-03  -3.2980332179813457e-02  -6.6296446130530720e-02  -3.5522981955894303e-02  -1.1622244720032246e-02  5.7405223302022150e-03  -4.3069408004529887e-02  4.9574622162128733e-02  5.3339667273454155e-02  4.5898217272366891e-02  -7.3584992825011986e-01  -1.0375044281724777e+00  -1.2566148140742173e+00  -1.0041319444159347e+00  -9.1744235647200867e-01  -5.4776896835685984e-02  7.2033656296119719e-01  1.1693346085207756e+00  1.1996879655267825e+00  9.5253195170449767e-01  9.0708582560363127e-01  4.5898217272366891e-02  8.9342764660842733e-03  -1.1713126594300356e+00  -1.3890487434136725e+00  -1.1373622891545516e+00  -1.5955236680826190e+00  -9.4842529881692306e-01  4.0693907712169290e-02  1.0257449482903660e+00  1.3955808542582049e+00  1.1971161906985668e+00  1.6031999152166965e+00  9.9759230059133808e-01  8.9342764660842733e-03  -1.8292071988986077e-02  -1.1901027347367317e+00  -1.2104964193535124e+00  -1.7370105481502260e+00  -1.1987509010906914e+00  -1.1963801098626379e+00  -1.5203003882664538e-02  1.2635944241013197e+00  1.1395148892692859e+00  1.7227384880542354e+00  1.1357966344938524e+00  1.2609762868759899e+00  -1.8292071988986077e-02  3.8147871232207198e-02  -9.4515656833794470e-01  -1.6083271885114323e+00  -1.1356184558768767e+00  -1.3898154382985282e+00  -1.1731529232048856e+00  1.3862428283846463e-02  1.0089519565675702e+00  1.6025350081622287e+00  1.1889988910188742e+00  1.3884547042038697e+00  1.0225771786795139e+00  3.8147871232207198e-02  -4.9348064867821617e-02  -9.2635667694971624e-01  -9.9649986011195157e-01  -1.2622322245803550e+00  -1.0238129030416119e+00  -7.1745135054458165e-01  4.1587445671334954e-02  9.1784773496631522e-01  9.4783855934792149e-01  1.1887459015251223e+00  1.1677173639077496e+00  7.1936656022063927e-01  -4.9348064867821617e-02  -3.7121336054249714e-02  -3.7038133261418853e-02  -1.3580934624329364e-02  2.0653041050346561e-02  -3.1003394881455319e-02  5.1584352508017059e-02  4.3686267200551139e-02  5.3137993948177004e-02  -4.0705453992233430e-02  1.3689670025644694e-02  -1.5647844493312926e-02  -5.4476694779361172e-02  -3.7121336054249714e-02  -5.9251041051136384e-02  7.2159930909469328e-01  1.1706160853899583e+00  1.1984295313351609e+00  9.5642141474345121e-01  9.1809590400576691e-01  3.5525488043375977e-02  -7.1770150247210984e-01  -1.0303625769564067e+00  -1.2504278486961513e+00  -1.0023197184932646e+00  -9.0529526263446847e-01  -5.9251041051136384e-02  3.4952118147138063e-02  1.0355653939651637e+00  1.3925696697160705e+00  1.1953834290473944e+00  1.6040291300442038e+00  1.0002980080641610e+00  8.3386745063111795e-03  -1.1752606228360922e+00  -1.3900980805485241e+00  -1.1428690876087320e+00  -1.5976376557411052e+00  -9.4943518184466502e-01  3.4952118147138063e-02  -1.5360812042438454e-02  1.2687634692209202e+00  1.1453930856835262e+00  1.7368527958526414e+00  1.1373812003392176e+00  1.2561398082931181e+00  -1.8794128996991552e-02  -1.1976435824358103e+00  -1.2018734828924358e+00  -1.7317217282582891e+00  -1.1965919344398466e+00  -1.1975083529893202e+00  -1.5360812042438454e-02  1.5313269496684016e-02  1.0026204910290504e+00  1.6029897195965681e+00  1.1926225765679814e+00  1.3956533909273205e+00  1.0203088404642258e+00  3.2891967733610361e-02  -9.5615208265880225e-01  -1.5828790735688110e+00  -1.1451581607618098e+00  -1.3867479635037883e+00  -1.1663220432052945e+00  1.5313269496684016e-02  3.7788673139251085e-02  9.2186371660586375e-01  9.4987366520138261e-01  1.1958187138785836e+00  1.1743242211515359e+00  7.2851238447184397e-01  -6.3912330906044965e-02  -9.0773836639117256e-01  -1.0007297590803996e+00  -1.2522521883840179e+00  -1.0257778256824730e+00  -7.1778113010307332e-01  3.7788673139251085e-02  5.3339667273454155e-02  6.2925980541889220e-02  -3.6387224527452362e-02  1.3442839434974461e-02  -4.6442855047388789e-03  -3.2980332179813457e-02  -6.6296446130530720e-02  -3.5522981955894303e-02  -1.1622244720032246e-02  5.7405223302022150e-03  -4.3069408004529887e-02  4.9574622162128733e-02  5.3339667273454155e-02  5.8460025274648240e-02  4.6470725118220139e-03  -4.9923051424027899e-02  3.9084155569556172e-03  -7.4923779050959788e-02  -5.3980624119934290e-02  -3.2745038002104140e-02  -5.3556338516757120e-03  1.4614331635599649e-02  -1.1878968808653793e-02  3.9771142635084904e-02  9.3667890948689048e-02  5.8460025274648240e-02  -1.4541974043052837e-02  -6.6830698769646391e-01  -9.0858280770596267e-01  -1.0220738053010476e+00  -9.8916740925984947e-01  -7.1949199318897339e-01  -2.1276473358381558e-02  6.7036319346459172e-01  9.5215745409378483e-01  9.7732311113567438e-01  9.2782164554176005e-01  7.3786489886229745e-01  -1.4541974043052837e-02  -2.0825864786240961e-02  -9.5804361420574546e-01  -1.1818197983575243e+00  -1.2537630043947843e+00  -1.4088788499385838e+00  -8.0418597152933846e-01  5.5204481718204364e-02  9.0163580031081136e-01  1.1747563498460361e+00  1.3184169528061715e+00  1.3760501946513868e+00  8.4678795098793957e-01  -2.0825864786240961e-02  1.4498379304455323e-02  -9.7785320948920063e-01  -1.3205517676908434e+00  -1.5607012485996594e+00  -1.2604280531896317e+00  -1.0207053127058723e+00  1.0208355908075085e-03  1.0097172742226510e+00  1.2550423495630829e+00  1.5592702147977939e+00  1.1810365863217338e+00  1.0592618245596392e+00  1.4498379304455323e-02  -4.0778806249116652e-02  -9.4263058692068180e-01  -1.3693421063609477e+00  -1.1764778220108494e+00  -1.3384244359294846e+00  -1.0527980507222616e+00  7.9025390672770396e-02  9.8551172526076980e-01  1.3926469772483665e+00  1.2502287416985141e+00  1.3271496073696754e+00  8.8183978919470085e-01  -4.0778806249116652e-02  -8.8318368805847550e-02  -7.4454821234968116e-01  -8.4297958342482238e-01  -1.0543986736833022e+00  -8.8063362125651323e-01  -5.2886012581048858e-01  5.9178363897776962e-02  7.2110117222136150e-01  8.1539006845189688e-01  1.0237319138444037e+00  1.0476130347141424e+00  5.3717961758133848e-01  -8.8318368805847550e-02  -5.0834650860007637e-02  -5.0989319028827069e-04  1.4167543019678491e-02  -1.3531425449338047e-02  4.2685367976497489e-02  8.6014353710485214e-02  3.2391512370268626e-02  1.7202693864534994e-02  -5.0268473532814488e-02  -7.6816162406500058e-04  -8.0072487990816718e-02  -5.4520603104002328e-02  -5.0834650860007637e-02  -8.2549805611607501e-03  6.5919691143709236e-01  9.5053114636230773e-01  9.7828695862414372e-01  9.3981776505267067e-01  7.5069772200191254e-01  1.0665888827134993e-02  -6.7074158361844294e-01  -8.9711719488221542e-01  -1.0100611873788203e+00  -9.8466937428599188e-01  -7.2298989362595856e-01  -8.2549805611607501e-03  5.0982692815633543e-02  9.0783768239294604e-01  1.1755409978339004e+00  1.3205726473079242e+00  1.3749044663770791e+00  8.4299114635761241e-01  -2.7181720353709877e-02  -9.4975939218960770e-01  -1.1814842503120337e+00  -1.2539790127965564e+00  -1.3918694474868851e+00  -8.0560631026653773e-01  5.0982692815633543e-02  -4.6554354386130502e-04  1.0182798852980368e+00  1.2545101064259387e+00  1.5715352123608239e+00  1.1712591164940109e+00  1.0635191303690101e+00  6.5303802859650612e-03  -9.7627194333151679e-01  -1.3145939304968162e+00  -1.5642118831586955e+00  -1.2613796692215404e+00  -1.0202228920259457e+00  -4.6554354386130502e-04  8.8126101935352294e-02  9.8794663758233092e-01  1.3967656033863385e+00  1.2563164133616977e+00  1.3349091286906765e+00  8.8514513321535848e-01  -5.0002837890760807e-02  -9.3409209859791364e-01  -1.3740759163198855e+00  -1.1842443266755793e+00  -1.3384199061689426e+00  -1.0600233937329326e+00  8.8126101935352294e-02  6.6625839295336844e-02  7.3244539809174558e-01  8.0515316546694526e-01  1.0210613707436169e+00  1.0559037568471954e+00  5.3957381973588281e-01  -7.8418647301099972e-02  -7.5333703334296354e-01  -8.3295486512269434e-01  -1.0421926105749417e+00  -8.8215691449403477e-01  -5.4250782119212670e-01  6.6625839295336844e-02  5.8460025274648240e-02  4.6470725118220139e-03  -4.9923051424027899e-02  3.9084155569556172e-03  -7.4923779050959788e-02  -5.3980624119934290e-02  -3.2745038002104140e-02  -5.3556338516757120e-03  1.4614331635599649e-02  -1.1878968808653793e-02  3.9771142635084904e-02  9.3667890948689048e-02  5.8460025274648240e-02  6.6056966973666621e-03  2.4191268026096821e-02  -2.7562620049337471e-02  -2.8038906754218381e-02  -6.1269647653976349e-02  -3.6975763752615236e-02  -1.4856395863405217e-02  -3.3603745127121034e-03  3.7112787057794180e-02  6.1204068218212483e-03  4.7245816127158100e-02  -2.7754850631529614e-03  6.6056966973666621e-03  2.2901559407609736e-02  -3.6003226548943867e-01  -5.4571314409648408e-01  -6.2441832440704170e-01  -6.2213215696485313e-01  -3.3529975361854480e-01  -1.4567305441838764e-02  3.4822553372460818e-01  5.4971098542590824e-01  6.7737742705880322e-01  6.0227729589295798e-01  3.4926258774502911e-01  2.2901559407609736e-02  -2.5291065705426059e-02  -5.5613991219072134e-01  -7.8987140909178044e-01  -9.7831877247770638e-01  -8.6317398582981542e-01  -4.3834724031673511e-01  1.7510531624860649e-02  5.4713154423760069e-01  7.9573764224123644e-01  9.8854826062133350e-01  8.2313329521302814e-01  4.6963176196825646e-01  -2.5291065705426059e-02  -1.1179296144640923e-02  -6.7199541632184612e-01  -9.9216030863024662e-01  -1.0418652297011444e+00  -9.3207137938539708e-01  -5.2921746743152531e-01  3.1647612382908523e-02  6.2753859639664067e-01  9.7525884097461568e-01  1.0369068476644192e+00  9.2800705374786452e-01  5.7698588265631512e-01  -1.1179296144640923e-02  -5.9451479894417951e-02  -5.9474677345341043e-01  -8.2120025817560993e-01  -9.2616748241617486e-01  -8.4166454380624911e-01  -5.1831207705029148e-01  6.7000303273174994e-02  6.2985832155253385e-01  8.6972696617341627e-01  9.2497428843860496e-01  8.2850303735756026e-01  4.7751499866019476e-01  -5.9451479894417951e-02  -9.5139219465468598e-03  -3.5026606264988686e-01  -4.7912539001183496e-01  -5.7367010028335153e-01  -4.6230456437545425e-01  -1.9133516500969106e-01  3.7549931507838370e-02  3.2096902456159149e-01  4.3836864638055595e-01  5.2401526765725814e-01  5.2338857948553408e-01  2.0160471186079512e-01  -9.5139219465468598e-03  -2.3726488177052810e-02  -9.9037795226414923e-03  3.3602524411268389e-02  1.0045250917580741e-02  5.8732835372608219e-02  1.0150752410133706e-02  2.1871088726533806e-02  2.0426254871504665e-02  -3.3296707942334781e-02  -3.0718557180772404e-02  -5.8513319746097539e-02  -4.0166329923806102e-02  -2.3726488177052810e-02  -1.7834872564447827e-02  3.4309900311571734e-01  5.4347159805106293e-01  6.8299393852720314e-01  6.0138474893462812e-01  3.5748247485310730e-01  1.8645277103287759e-02  -3.5481358870147595e-01  -5.4068689748831189e-01  -6.1607996098757156e-01  -6.2609213577344280e-01  -3.2546821314616631e-01  -1.7834872564447827e-02  2.8417771136474000e-02  5.2987301645512885e-01  7.9567046511530193e-01  9.8723382488556888e-01  8.1922573385453645e-01  4.6774142986231010e-01  -3.8390359725464326e-02  -5.5623188548140723e-01  -7.9353139609945345e-01  -9.6509842018082814e-01  -8.6241730882219414e-01  -4.3292733752103429e-01  2.8417771136474000e-02  3.0861505297579861e-02  6.2925546042366876e-01  9.7169477046781738e-01  1.0502604780931362e+00  9.1776997302363905e-01  5.7408848728400941e-01  -2.0390115548076574e-02  -6.7785017326521935e-01  -9.8285604240851976e-01  -1.0438720818052660e+00  -9.2623989938857232e-01  -5.3432144694109285e-01  3.0861505297579861e-02  6.1829741052934463e-02  6.2797148120996249e-01  8.6913857752700518e-01  9.3222874976624126e-01  8.4581892689262528e-01  4.6397135294702235e-01  -6.0689483832563944e-02  -5.9605204154114555e-01  -8.2381630154266938e-01  -9.2204821558609362e-01  -8.4506554797058042e-01  -5.2413619479719564e-01  6.1829741052934463e-02  4.5398323376210942e-02  3.1515402637677031e-01  4.3335992615058028e-01  5.2769895387185284e-01  5.2957754301367843e-01  2.0029622835727082e-01  -6.1396295791287456e-03  -3.4394375576166536e-01  -4.7151768499862085e-01  -5.7973928880642778e-01  -4.6527018164829981e-01  -2.0475299010597048e-01  4.5398323376210942e-02  6.6056966973666621e-03  2.4191268026096821e-02  -2.7562620049337471e-02  -2.8038906754218381e-02  -6.1269647653976349e-02  -3.6975763752615236e-02  -1.4856395863405217e-02  -3.3603745127121034e-03  3.7112787057794180e-02  6.1204068218212483e-03  4.7245816127158100e-02  -2.7754850631529614e-03  6.6056966973666621e-03  7.1653038443055756e-03  -9.3297763518691013e-03  -7.0389444832205670e-03  1.0090782506452897e-02  -7.2554322630470243e-03  -1.0143710305202917e-02  6.9573113682964288e-04  -7.1920925149984586e-03  1.0504954144818949e-02  2.6042697505564507e-02  1.3383920205975910e-02  7.5464153168408998e-03  7.1653038443055756e-03  -2.9056086333489606e-03  -5.5957632543519278e-02  -5.0061019689764404e-02  -6.2452362030298365e-02  -6.1846027602163581e-02  -3.7355468463008252e-03  1.5826555000669183e-02  5.9285250980052377e-02  9.4845561582618074e-02  4.5766095790326623e-02  7.3604695392827716e-04  1.1272087168922144e-02  -2.9056086333489606e-03  -1.9179401305137449e-02  -8.8154073500736008e-02  -9.1944903568471820e-02  -7.3799854576383925e-02  -1.2303749640791054e-04  4.7528497042442587e-02  1.3986179608630375e-02  2.3028759022742453e-02  9.3099885229156368e-02  6.9103115212315616e-02  5.7371979470561088e-04  3.0701348653786337e-03  -1.9179401305137449e-02  -1.8602222269265608e-02  -5.4084380369657015e-02  -6.2113087501494836e-02  -8.4920357880448692e-03  7.2754632660926313e-02  5.7968157392212047e-02  -1.9937040328769747e-02  5.1264591670998831e-02  7.4774375439740567e-02  5.0679105213411674e-03  -5.7728356925041205e-02  -4.3320415667748288e-02  -1.8602222269265608e-02  -1.6192605238615862e-02  7.3312620242682279e-03  -3.5878876358069640e-03  5.9418691524042819e-02  1.1174033050819152e-01  3.8677878990622916e-02  1.1427918450866057e-02  6.4358886891615882e-02  -4.9814231933818284e-03  -6.4938855940247092e-02  -9.6411004645455628e-02  -8.7818028132485473e-02  -1.6192605238615862e-02  -1.0229843509052296e-02  -3.3991118465456012e-03  9.5221378106648204e-04  5.0523357132119438e-02  8.9589273105947512e-02  5.3655347941163695e-02  1.7299522418157652e-02  5.8977163127788253e-03  -5.9003058174257522e-02  -5.3812339412826801e-02  -4.9584971518878584e-02  -5.3657095927207417e-02  -1.0229843509052296e-02  -2.4536982145478061e-04  9.2065117372397230e-03  1.9471566102096886e-02  1.7198804434527152e-02  2.0658775257082668e-02  2.5570325478601586e-03  7.7477983724237743e-03  -3.8742024331516636e-03  -1.0571873884111488e-02  2.1537304458854208e-02  -3.3697707510108818e-03  -2.7349381193416639e-02  -2.4536982145478061e-04  1.1013898226436385e-02  5.0393867140602552e-02  8.6840685037203283e-02  5.1084858932349729e-02  4.9837368776388981e-03  2.5628074323283947e-03  2.7019587603657308e-03  -5.3399072676926944e-02  -3.8290238499419753e-02  -4.0887698369613701e-02  -6.4111413990283792e-02  -2.3535684183428524e-03  1.1013898226436385e-02  -3.3202994004051431e-03  4.4197069451793233e-02  9.2583958299170641e-02  5.5927318321893689e-02  -9.9821470906625524e-03  -3.8590245751216629e-03  -2.2125166757760665e-02  -8.9175543918538464e-02  -8.7899985517980297e-02  -7.3056031041855984e-02  3.5202973243254553e-03  5.9425198761972199e-02  -3.3202994004051431e-03  -2.5054638514732996e-02  5.4824752000713503e-02  7.2095304444780822e-02  -3.5020685798719852e-03  -6.3438113869613885e-02  -6.0335622450826659e-02  -2.0681895699063826e-02  -4.7249368217963508e-02  -5.7358116983686050e-02  -2.5280477344860374e-03  8.7467814301224148e-02  5.0195981854572781e-02  -2.5054638514732996e-02  1.3411891062880276e-02  6.7057195183330642e-02  6.6578813588452244e-03  -6.7956335836038051e-02  -9.1665530708454707e-02  -9.0361658456451138e-02  -3.2725780771944254e-02  2.6244839701862186e-03  -1.7509205392734672e-03  5.2635103597542879e-02  8.6708208347119120e-02  3.7356997543297375e-02  1.3411891062880276e-02  1.6561299175315798e-02  -3.4821301451400293e-03  -5.6856452697496798e-02  -4.5818948159029850e-02  -4.2091544059782673e-02  -5.7444291861995844e-02  -1.9694137964732710e-04  3.9337000612553505e-05  9.4974967811344360e-03  3.2097152779262249e-02  9.3008987083254252e-02  5.1279082255748461e-02  1.6561299175315798e-02  7.1653038443055756e-03  -9.3297763518691013e-03  -7.0389444832205670e-03  1.0090782506452897e-02  -7.2554322630470243e-03  -1.0143710305202917e-02  6.9573113682964288e-04  -7.1920925149984586e-03  1.0504954144818949e-02  2.6042697505564507e-02  1.3383920205975910e-02  7.5464153168408998e-03  7.1653038443055756e-03  -1.7630977355182233e-02  -3.6360941269353991e-02  -6.7106968103975886e-02  -3.1470369231444417e-02  -4.2053528988026952e-02  1.9725749994452858e-02  1.1672183892389670e-02  2.1389333676980427e-02  6.6675687342317935e-02  9.3982098329146047e-03  3.0582978912605616e-02  -3.0836686870213239e-03  -1.7630977355182233e-02  -8.7455051953333283e-03  1.9899314585306374e-01  5.3286075821141587e-01  5.2836901360268163e-01  4.4130051239140883e-01  3.1655602664183058e-01  3.9578091921899261e-02  -2.0697051610298051e-01  -4.8221134699604939e-01  -5.8910202182153026e-01  -4.7807687634605878e-01  -3.4651501914917521e-01  -8.7455051953333283e-03  -5.6452321723823702e-02  4.6007640353278234e-01  8.4945297537523190e-01  9.3234943382440483e-01  8.6149853891729555e-01  6.2936920878422942e-01  6.3570278530415483e-02  -5.3147326078884705e-01  -8.4251765236779541e-01  -9.2339512968420712e-01  -8.1456999761165538e-01  -5.8882065042489884e-01  -5.6452321723823702e-02  -1.1392440311468714e-02  5.8342886198061794e-01  9.1887511823810974e-01  1.0499630235379220e+00  9.7052915124428929e-01  6.2622777881161629e-01  1.2821857039140967e-02  -5.3466583456000993e-01  -9.2264118685405017e-01  -1.0381396837419146e+00  -9.8962470081173692e-01  -6.6553240146422954e-01  -1.1392440311468714e-02  -1.7605599418710170e-02  4.7270521079262900e-01  8.2529251966104322e-01  9.9791671017193473e-01  7.8653200849738258e-01  5.2858435329816000e-01  2.3473914905608920e-02  -4.3635771648608263e-01  -8.7943247670941760e-01  -9.7128431424229777e-01  -7.9283790545852850e-01  -5.5213806188533465e-01  -1.7605599418710170e-02  1.7417900583021447e-02  3.4607473722225662e-01  5.9425574788000490e-01  6.6528936004731920e-01  5.4885500182201985e-01  3.3789372265166695e-01  1.5633058281051770e-03  -3.2455103008063685e-01  -6.3659173098507749e-01  -6.3175414345241732e-01  -5.3039653440350010e-01  -3.6054738244513257e-01  1.7417900583021447e-02  1.2951021219446798e-02  2.0802101187160953e-02  5.0388581092416208e-02  7.3605986595135604e-03  4.1241931495912196e-02  -1.2431382373526168e-02  -5.9927508070841840e-03  -4.0206569527029064e-02  -3.6494915500129108e-02  -7.7031250418819440e-03  -1.2390163296190707e-02  5.8115863164368616e-03  1.2951021219446798e-02  4.0644081233086743e-02  -2.0152935915767503e-01  -4.7293393229136482e-01  -5.8480307388758501e-01  -4.7539209660812815e-01  -3.4978307314886103e-01  -1.8878353453518775e-02  2.2347663186890906e-01  5.3713758381190990e-01  5.4397630933197005e-01  4.3216972884744975e-01  3.0677030100893510e-01  4.0644081233086743e-02  5.5761465632446876e-02  -5.2517596906714126e-01  -8.4247476637323060e-01  -9.2245000644483255e-01  -8.2948031725096494e-01  -5.9754152310330455e-01  -5.6838763625821742e-02  4.8368083322115812e-01  8.4864480120300911e-01  9.3937117394925274e-01  8.6257939237055214e-01  6.2782871141251240e-01  5.5761465632446876e-02  1.8815230543516605e-02  -5.2827254132592871e-01  -9.4352981054622975e-01  -1.0372724174366952e+00  -1.0018024600891557e+00  -6.8112377617524356e-01  -1.1274446489793085e-02  5.8517416350583240e-01  9.1876581807974445e-01  1.0591248990918829e+00  9.8255560303627942e-01  6.2965803717484892e-01  1.8815230543516605e-02  1.2423784040574348e-02  -4.3889647476074040e-01  -8.5826628472148969e-01  -9.6197730313925267e-01  -7.8784899390687080e-01  -5.6167859563049782e-01  -3.1009603