<?xml version="1.0"?>
<VTKFile type="UnstructuredGrid"  version="0.1"  >
<UnstructuredGrid>
<Piece  NumberOfPoints="2197" NumberOfCells="10368">
<Points>
<DataArray  type="Float64"  NumberOfComponents="3"  format="ascii">-3.141592653589793 -3.141592653589793 -3.141592653589793  -2.617993877991494 -3.141592653589793 -3.141592653589793  -2.094395102393196 -3.141592653589793 -3.141592653589793  -1.570796326794897 -3.141592653589793 -3.141592653589793  -1.047197551196598 -3.141592653589793 -3.141592653589793  -0.5235987755982987 -3.141592653589793 -3.141592653589793  0 -3.141592653589793 -3.141592653589793  0.5235987755982987 -3.141592653589793 -3.141592653589793  1.047197551196597 -3.141592653589793 -3.141592653589793  1.570796326794897 -3.141592653589793 -3.141592653589793  2.094395102393196 -3.141592653589793 -3.141592653589793  2.617993877991494 -3.141592653589793 -3.141592653589793  3.141592653589793 -3.141592653589793 -3.141592653589793  -3.141592653589793 -2.617993877991494 -3.141592653589793  -2.617993877991494 -2.617993877991494 -3.141592653589793  -2.094395102393196 -2.617993877991494 -3.141592653589793  -1.570796326794897 -2.617993877991494 -3.141592653589793  -1.047197551196598 -2.617993877991494 -3.141592653589793  -0.5235987755982987 -2.617993877991494 -3.141592653589793  0 -2.617993877991494 -3.141592653589793  0.5235987755982987 -2.617993877991494 -3.141592653589793  1.047197551196597 -2.617993877991494 -3.141592653589793  1.570796326794897 -2.617993877991494 -3.141592653589793  2.094395102393196 -2.617993877991494 -3.141592653589793  2.617993877991494 -2.617993877991494 -3.141592653589793  3.141592653589793 -2.617993877991494 -3.141592653589793  -3.141592653589793 -2.094395102393196 -3.141592653589793  -2.617993877991494 -2.094395102393196 -3.141592653589793  -2.094395102393196 -2.094395102393196 -3.141592653589793  -1.570796326794897 -2.094395102393196 -3.141592653589793  -1.047197551196598 -2.094395102393196 -3.141592653589793  -0.5235987755982987 -2.094395102393196 -3.141592653589793  0 -2.094395102393196 -3.141592653589793  0.5235987755982987 -2.094395102393196 -3.141592653589793  1.047197551196597 -2.094395102393196 -3.141592653589793  1.570796326794897 -2.094395102393196 -3.141592653589793  2.094395102393196 -2.094395102393196 -3.141592653589793  2.617993877991494 -2.094395102393196 -3.141592653589793  3.141592653589793 -2.094395102393196 -3.141592653589793  -3.141592653589793 -1.570796326794897 -3.141592653589793  -2.617993877991494 -1.570796326794897 -3.141592653589793  -2.094395102393196 -1.570796326794897 -3.141592653589793  -1.570796326794897 -1.570796326794897 -3.141592653589793  -1.047197551196598 -1.570796326794897 -3.141592653589793  -0.5235987755982987 -1.570796326794897 -3.141592653589793  0 -1.570796326794897 -3.141592653589793  0.5235987755982987 -1.570796326794897 -3.141592653589793  1.047197551196597 -1.570796326794897 -3.141592653589793  1.570796326794897 -1.570796326794897 -3.141592653589793  2.094395102393196 -1.570796326794897 -3.141592653589793  2.617993877991494 -1.570796326794897 -3.141592653589793  3.141592653589793 -1.570796326794897 -3.141592653589793  -3.141592653589793 -1.047197551196598 -3.141592653589793  -2.617993877991494 -1.047197551196598 -3.141592653589793  -2.094395102393196 -1.047197551196598 -3.141592653589793  -1.570796326794897 -1.047197551196598 -3.141592653589793  -1.047197551196598 -1.047197551196598 -3.141592653589793  -0.5235987755982987 -1.047197551196598 -3.141592653589793  0 -1.047197551196598 -3.141592653589793  0.5235987755982987 -1.047197551196598 -3.141592653589793  1.047197551196597 -1.047197551196598 -3.141592653589793  1.570796326794897 -1.047197551196598 -3.141592653589793  2.094395102393196 -1.047197551196598 -3.141592653589793  2.617993877991494 -1.047197551196598 -3.141592653589793  3.141592653589793 -1.047197551196598 -3.141592653589793  -3.141592653589793 -0.5235987755982987 -3.141592653589793  -2.617993877991494 -0.5235987755982987 -3.141592653589793  -2.094395102393196 -0.5235987755982987 -3.141592653589793  -1.570796326794897 -0.5235987755982987 -3.141592653589793  -1.047197551196598 -0.5235987755982987 -3.141592653589793  -0.5235987755982987 -0.5235987755982987 -3.141592653589793  0 -0.5235987755982987 -3.141592653589793  0.5235987755982987 -0.5235987755982987 -3.141592653589793  1.047197551196597 -0.5235987755982987 -3.141592653589793  1.570796326794897 -0.5235987755982987 -3.141592653589793  2.094395102393196 -0.5235987755982987 -3.141592653589793  2.617993877991494 -0.5235987755982987 -3.141592653589793  3.141592653589793 -0.5235987755982987 -3.141592653589793  -3.141592653589793 0 -3.141592653589793  -2.617993877991494 0 -3.141592653589793  -2.094395102393196 0 -3.141592653589793  -1.570796326794897 0 -3.141592653589793  -1.047197551196598 0 -3.141592653589793  -0.5235987755982987 0 -3.141592653589793  0 0 -3.141592653589793  0.5235987755982987 0 -3.141592653589793  1.047197551196597 0 -3.141592653589793  1.570796326794897 0 -3.141592653589793  2.094395102393196 0 -3.141592653589793  2.617993877991494 0 -3.141592653589793  3.141592653589793 0 -3.141592653589793  -3.141592653589793 0.5235987755982987 -3.141592653589793  -2.617993877991494 0.5235987755982987 -3.141592653589793  -2.094395102393196 0.5235987755982987 -3.141592653589793  -1.570796326794897 0.5235987755982987 -3.141592653589793  -1.047197551196598 0.5235987755982987 -3.141592653589793  -0.5235987755982987 0.5235987755982987 -3.141592653589793  0 0.5235987755982987 -3.141592653589793  0.5235987755982987 0.5235987755982987 -3.141592653589793  1.047197551196597 0.5235987755982987 -3.141592653589793  1.570796326794897 0.5235987755982987 -3.141592653589793  2.094395102393196 0.5235987755982987 -3.141592653589793  2.617993877991494 0.5235987755982987 -3.141592653589793  3.141592653589793 0.5235987755982987 -3.141592653589793  -3.141592653589793 1.047197551196597 -3.141592653589793  -2.617993877991494 1.047197551196597 -3.141592653589793  -2.094395102393196 1.047197551196597 -3.141592653589793  -1.570796326794897 1.047197551196597 -3.141592653589793  -1.047197551196598 1.047197551196597 -3.141592653589793  -0.5235987755982987 1.047197551196597 -3.141592653589793  0 1.047197551196597 -3.141592653589793  0.5235987755982987 1.047197551196597 -3.141592653589793  1.047197551196597 1.047197551196597 -3.141592653589793  1.570796326794897 1.047197551196597 -3.141592653589793  2.094395102393196 1.047197551196597 -3.141592653589793  2.617993877991494 1.047197551196597 -3.141592653589793  3.141592653589793 1.047197551196597 -3.141592653589793  -3.141592653589793 1.570796326794897 -3.141592653589793  -2.617993877991494 1.570796326794897 -3.141592653589793  -2.094395102393196 1.570796326794897 -3.141592653589793  -1.570796326794897 1.570796326794897 -3.141592653589793  -1.047197551196598 1.570796326794897 -3.141592653589793  -0.5235987755982987 1.570796326794897 -3.141592653589793  0 1.570796326794897 -3.141592653589793  0.5235987755982987 1.570796326794897 -3.141592653589793  1.047197551196597 1.570796326794897 -3.141592653589793  1.570796326794897 1.570796326794897 -3.141592653589793  2.094395102393196 1.570796326794897 -3.141592653589793  2.617993877991494 1.570796326794897 -3.141592653589793  3.141592653589793 1.570796326794897 -3.141592653589793  -3.141592653589793 2.094395102393196 -3.141592653589793  -2.617993877991494 2.094395102393196 -3.141592653589793  -2.094395102393196 2.094395102393196 -3.141592653589793  -1.570796326794897 2.094395102393196 -3.141592653589793  -1.047197551196598 2.094395102393196 -3.141592653589793  -0.5235987755982987 2.094395102393196 -3.141592653589793  0 2.094395102393196 -3.141592653589793  0.5235987755982987 2.094395102393196 -3.141592653589793  1.047197551196597 2.094395102393196 -3.141592653589793  1.570796326794897 2.094395102393196 -3.141592653589793  2.094395102393196 2.094395102393196 -3.141592653589793  2.617993877991494 2.094395102393196 -3.141592653589793  3.141592653589793 2.094395102393196 -3.141592653589793  -3.141592653589793 2.617993877991494 -3.141592653589793  -2.617993877991494 2.617993877991494 -3.141592653589793  -2.094395102393196 2.617993877991494 -3.141592653589793  -1.570796326794897 2.617993877991494 -3.141592653589793  -1.047197551196598 2.617993877991494 -3.141592653589793  -0.5235987755982987 2.617993877991494 -3.141592653589793  0 2.617993877991494 -3.141592653589793  0.5235987755982987 2.617993877991494 -3.141592653589793  1.047197551196597 2.617993877991494 -3.141592653589793  1.570796326794897 2.617993877991494 -3.141592653589793  2.094395102393196 2.617993877991494 -3.141592653589793  2.617993877991494 2.617993877991494 -3.141592653589793  3.141592653589793 2.617993877991494 -3.141592653589793  -3.141592653589793 3.141592653589793 -3.141592653589793  -2.617993877991494 3.141592653589793 -3.141592653589793  -2.094395102393196 3.141592653589793 -3.141592653589793  -1.570796326794897 3.141592653589793 -3.141592653589793  -1.047197551196598 3.141592653589793 -3.141592653589793  -0.5235987755982987 3.141592653589793 -3.141592653589793  0 3.141592653589793 -3.141592653589793  0.5235987755982987 3.141592653589793 -3.141592653589793  1.047197551196597 3.141592653589793 -3.141592653589793  1.570796326794897 3.141592653589793 -3.141592653589793  2.094395102393196 3.141592653589793 -3.141592653589793  2.617993877991494 3.141592653589793 -3.141592653589793  3.141592653589793 3.141592653589793 -3.141592653589793  -3.141592653589793 -3.141592653589793 -2.617993877991494  -2.617993877991494 -3.141592653589793 -2.617993877991494  -2.094395102393196 -3.141592653589793 -2.617993877991494  -1.570796326794897 -3.141592653589793 -2.617993877991494  -1.047197551196598 -3.141592653589793 -2.617993877991494  -0.5235987755982987 -3.141592653589793 -2.617993877991494  0 -3.141592653589793 -2.617993877991494  0.5235987755982987 -3.141592653589793 -2.617993877991494  1.047197551196597 -3.141592653589793 -2.617993877991494  1.570796326794897 
[...]
<PointData  Scalars="f_290364"> 
<DataArray  type="Float64"  Name="f_290364"  format="ascii">5.2261026141854738e-02  6.1939548333268701e-02  -3.7770302228268826e-02  1.4245604233874260e-02  -5.0154456338765687e-03  -3.2198806161840378e-02  -6.5674192631430386e-02  -3.5418421910276658e-02  -1.1287660140594952e-02  6.2889865109368006e-03  -4.4271073827459470e-02  4.8432767805054164e-02  5.2261026141854738e-02  4.5351125447556831e-02  -7.4051796618200094e-01  -1.0378839514583977e+00  -1.2674985458452284e+00  -9.9995145601014668e-01  -9.2744729159295858e-01  -5.3741109606593666e-02  7.2475653893137948e-01  1.1703694157699558e+00  1.2081085296780267e+00  9.5154722279026749e-01  9.1729518273608746e-01  4.5351125447556831e-02  8.9874442210773117e-03  -1.1721147053528362e+00  -1.3871405281459241e+00  -1.1172121676389428e+00  -1.5928901637977686e+00  -9.4742020484313028e-01  4.1825084002104329e-02  1.0261776845334087e+00  1.3935391366193688e+00  1.1771047681355700e+00  1.6006560650756154e+00  9.9328960249280696e-01  8.9874442210773117e-03  -1.9122977506648358e-02  -1.1986432082704921e+00  -1.1904835603016977e+00  -1.7290276017441417e+00  -1.1788974390953908e+00  -1.2049028324227233e+00  -1.5967252156029704e-02  1.2745575743936721e+00  1.1195947685558572e+00  1.7147601085010256e+00  1.1159568198886598e+00  1.2718060467701207e+00  -1.9122977506648358e-02  3.9207045712481042e-02  -9.4390059743378152e-01  -1.6059600526731816e+00  -1.1155554645299917e+00  -1.3878757164402478e+00  -1.1740073574472827e+00  1.4403778816271291e-02  1.0046395624215048e+00  1.5998154856991453e+00  1.1691579943368160e+00  1.3864808167689480e+00  1.0229192334897745e+00  3.9207045712481042e-02  -4.8203025806987439e-02  -9.3663558666425795e-01  -9.9237366676490701e-01  -1.2730205120904741e+00  -1.0241838884119052e+00  -7.2180100031816086e-01  4.0947901325663685e-02  9.2810159851988538e-01  9.4663041123461578e-01  1.1970122138615962e+00  1.1688123623493865e+00  7.2359690553851908e-01  -4.8203025806987439e-02  -3.5828615140725641e-02  -3.6545513840805566e-02  -1.3774347867348337e-02  2.1577199768553417e-02  -3.2105906229944005e-02  5.0508576488807230e-02  4.2576754836147201e-02  5.2037714767783516e-02  -4.2019083111130132e-02  1.4407022390362576e-02  -1.6108009759256841e-02  -5.4549707936743429e-02  -3.5828615140725641e-02  -5.8055042587795709e-02  7.2611922475117985e-01  1.1715168815892194e+00  1.2068584653511769e+00  9.5527223256798388e-01  9.2838463084812473e-01  3.5090255488398218e-02  -7.2204162167068819e-01  -1.0305772360780607e+00  -1.2611018037187829e+00  -9.9812579499510234e-01  -9.1523428236736715e-01  -5.8055042587795709e-02  3.6019400062596921e-02  1.0359552028506356e+00  1.3907164140722799e+00  1.1754056730771916e+00  1.6015207228191028e+00  9.9611982554474054e-01  8.5136142518757625e-03  -1.1762101003374104e+00  -1.3881293916838497e+00  -1.1228888762407121e+00  -1.5950072066773786e+00  -9.4860215412182292e-01  3.6019400062596921e-02  -1.5699415510011822e-02  1.2796290262217207e+00  1.1254363928008453e+00  1.7290028709741860e+00  1.1172682184242473e+00  1.2670464813902635e+00  -1.9765787426398840e-02  -1.2060913047435129e+00  -1.1820194979601859e+00  -1.7237836517223555e+00  -1.1767984599289618e+00  -1.2059173834629615e+00  -1.5699415510011822e-02  1.5496863906673040e-02  9.9841554645111563e-01  1.6003443009572793e+00  1.1728760351043406e+00  1.3936975966750447e+00  1.0207243515863127e+00  3.4015273942262329e-02  -9.5510990274055285e-01  -1.5803675947418823e+00  -1.1253980216935293e+00  -1.3846874923464567e+00  -1.1674427388976509e+00  1.5496863906673040e-02  3.7891691113636765e-02  9.3193751838495287e-01  9.4893087183380953e-01  1.2042801982668010e+00  1.1754634090220446e+00  7.3251719305959628e-01  -6.2834552960566684e-02  -9.1771108738633134e-01  -9.9668197687528637e-01  -1.2626950248749420e+00  -1.0260475534130011e+00  -7.2217793430422172e-01  3.7891691113636765e-02  5.2261026141854738e-02  6.1939548333268701e-02  -3.7770302228268826e-02  1.4245604233874260e-02  -5.0154456338765687e-03  -3.2198806161840378e-02  -6.5674192631430386e-02  -3.5418421910276658e-02  -1.1287660140594952e-02  6.2889865109368006e-03  -4.4271073827459470e-02  4.8432767805054164e-02  5.2261026141854738e-02  5.8545914789206399e-02  3.3608578416949460e-03  -5.0980018680644917e-02  4.5183757965880783e-03  -7.5447953189346453e-02  -5.3372978416680067e-02  -3.2458160769756349e-02  -4.6200941769659601e-03  1.3594477419715811e-02  -1.3080274038161997e-02  3.8541482933092598e-02  9.4351210344542497e-02  5.8545914789206399e-02  -1.5751587805996975e-02  -6.7249911610505342e-01  -9.1092895339771784e-01  -1.0291446778735518e+00  -9.8879836053547199e-01  -7.2714488909068975e-01  -2.0228876188158929e-02  6.7482852773213031e-01  9.5547244375885776e-01  9.7975590834775483e-01  9.3037057821803937e-01  7.4600290262377356e-01  -1.5751587805996975e-02  -1.9841586817697151e-02  -9.6181363796305908e-01  -1.1785102724039507e+00  -1.2402300346634907e+00  -1.4074320964323255e+00  -8.0509023712520367e-01  5.6441682685038172e-02  9.0361056863724964e-01  1.1715028418035716e+00  1.3101407206404680e+00  1.3731953002505080e+00  8.4472471403122618e-01  -1.9841586817697151e-02  1.5730931813493935e-02  -9.8014514998206492e-01  -1.3124864003647223e+00  -1.5549102779990838e+00  -1.2506106610875536e+00  -1.0278738034775761e+00  2.2522724470474899e-04  1.0166779281796618e+00  1.2415911870529106e+00  1.5534221742681484e+00  1.1701810685718583e+00  1.0661717163094453e+00  1.5730931813493935e-02  -3.9611679539677196e-02  -9.4520131788299000e-01  -1.3661436216572955e+00  -1.1656766521145610e+00  -1.3376981915802035e+00  -1.0571115198763870e+00  7.9338461510217381e-02  9.8544141275594999e-01  1.3908035852226373e+00  1.2406298628077599e+00  1.3265304430604847e+00  8.8237263933210641e-01  -3.9611679539677196e-02  -8.8787835467374981e-02  -7.5282315572878045e-01  -8.4101870089748154e-01  -1.0612907447233415e+00  -8.8110659093621235e-01  -5.3197137757174806e-01  5.8904275470785541e-02  7.2863038961675275e-01  8.1647186972327157e-01  1.0308506588895361e+00  1.0514867516732880e+00  5.4059323356502931e-01  -8.8787835467374981e-02  -5.0759404381937517e-02  9.1720971004457239e-06  1.3183601067414379e-02  -1.4784425599348283e-02  4.1529910943981209e-02  8.6564175518552458e-02  3.1704092946976820e-02  1.6213705053365911e-02  -5.1515737060275443e-02  1.5984692315179226e-05  -8.0580979476863740e-02  -5.4025474068513553e-02  -5.0759404381937517e-02  -7.0365401937282504e-03  6.6337931538070227e-01  9.5413144196520139e-01  9.8047205625868383e-01  9.4237689573415617e-01  7.5910628156554705e-01  1.0341647609539321e-02  -6.7503094882749137e-01  -8.9909209121730649e-01  -1.0169205028268375e+00  -9.8453005525743953e-01  -7.3042696904077264e-01  -7.0365401937282504e-03  5.2096570186628555e-02  9.0992248047876911e-01  1.1722744203079372e+00  1.3122799282734037e+00  1.3720170266275331e+00  8.4102744160382059e-01  -2.6330147835731840e-02  -9.5334026029170249e-01  -1.1782881626761998e+00  -1.2404640421976789e+00  -1.3903435008622915e+00  -8.0650517794732157e-01  5.2096570186628555e-02  -1.1552039538628776e-03  1.0252991774129632e+00  1.2410767007794943e+00  1.5658705134055153e+00  1.1603858979688773e+00  1.0704655666243004e+00  7.8332593315793043e-03  -9.7852386825341264e-01  -1.3065006206032217e+00  -1.5584388360503603e+00  -1.2517391702411587e+00  -1.0273237579836558e+00  -1.1552039538628776e-03  8.8799891276973991e-02  9.8783707167568757e-01  1.3949803053273286e+00  1.2467325661576951e+00  1.3342141099287310e+00  8.8576079532327701e-01  -4.9024721488518538e-02  -9.3656459647974866e-01  -1.3711602227191317e+00  -1.1733312646011251e+00  -1.3378357401401821e+00  -1.0642761040597872e+00  8.8799891276973991e-02  6.6424293686085267e-02  7.3992983762468811e-01  8.0617100484503290e-01  1.0282805831164958e+00  1.0603127747522969e+00  5.4285004649195112e-01  -7.8895927062648211e-02  -7.6164723416528879e-01  -8.3109588932420564e-01  -1.0489570489504501e+00  -8.8258024513760547e-01  -5.4601600053548627e-01  6.6424293686085267e-02  5.8545914789206399e-02  3.3608578416949460e-03  -5.0980018680644917e-02  4.5183757965880783e-03  -7.5447953189346453e-02  -5.3372978416680067e-02  -3.2458160769756349e-02  -4.6200941769659601e-03  1.3594477419715811e-02  -1.3080274038161997e-02  3.8541482933092598e-02  9.4351210344542497e-02  5.8545914789206399e-02  5.7370027483027051e-03  2.4524137761740439e-02  -2.8177837491858405e-02  -2.7083645542410929e-02  -6.3064195299310524e-02  -3.5788810444845470e-02  -1.4152916135326115e-02  -3.9699917799542184e-03  3.7458280843221982e-02  4.4708827990559939e-03  4.7429886415914502e-02  -4.2288127044901461e-03  5.7370027483027051e-03  2.3734419476007605e-02  -3.6246140142159067e-01  -5.4784011125124132e-01  -6.2537170146902554e-01  -6.2621757195829453e-01  -3.3759560938639877e-01  -1.4820807233367848e-02  3.5054522732812959e-01  5.5177667046983214e-01  6.8113757930401386e-01  6.0597333871494241e-01  3.5123903653844035e-01  2.3734419476007605e-02  -2.5572142131148914e-02  -5.5820453204200415e-01  -7.8726023028694192e-01  -9.7826577709404672e-01  -8.6499953749324976e-01  -4.3890313213297683e-01  1.7921916892551831e-02  5.4898242291300325e-01  7.9348976402362603e-01  9.8992870323161997e-01  8.2276575229683402e-01  4.6964404636364165e-01  -2.5572142131148914e-02  -9.3404042590132502e-03  -6.7596615401884785e-01  -9.9352721574662173e-01  -1.0414213242385197e+00  -9.3511354497850796e-01  -5.2867943569206299e-01  3.0922490166782810e-02  6.2866407766258847e-01  9.7503795628512924e-01  1.0364598930388347e+00  9.2943704917374659e-01  5.7975924092505060e-01  -9.3404042590132502e-03  -5.9830607107102640e-02  -5.9812671701041564e-01  -8.2079431213536136e-01  -9.2752607710143697e-01  -8.4474377240856435e-01  -5.2116926413941134e-01  6.8614748937873740e-02  6.3385669494710040e-01  8.7169886884907954e-01  9.2777445108690093e-01  8.3133878910470715e-01  4.7867395295186138e-01  -5.9830607107102640e-02  -8.1938063324061648e-03  -3.5231715023392313e-01  -4.7919081582137557e-01  -5.7659325878278456e-01  -4.6313958258808885e-01  -1.9120046539227212e-01  3.6552556786544912e-02  3.2305952142269262e-01  4.3891455956558034e-01  5.2339509341558321e-01  5.2639242601533154e-01  2.0170641463126726e-01  -8.1938063324061648e-03  -2.3198281275009499e-02  -1.0624665547999002e-02  3.4029792267810013e-02  8.2834047083940165e-03  5.9174815669881184e-02  8.6518242167438163e-03  2.1375601713259428e-02  2.0839767414940102e-02  -3.3911422729550666e-02  -2.9831234727644141e-02  -6.0122844918746601e-02  -3.9192430177330213e-02  -2.3198281275009499e-02  -1.8079525654718778e-02  3.4535448730961221e-01  5.4542983275604817e-01  6.8689711753484450e-01  6.0489993025386879e-01  3.5963048134832210e-01  1.9322604393982697e-02  -3.5728011578647106e-01  -5.4241762791984516e-01  -6.1723429353495485e-01  -6.3012534173426638e-01  -3.2767790163286142e-01  -1.8079525654718778e-02  2.8889643288495869e-02  5.3176180200356338e-01  7.9321176410311955e-01  9.8862133679589981e-01  8.1897244135172220e-01  4.6770517921697746e-01  -3.8903484107891677e-02  -5.5824174423484152e-01  -7.9122296398101966e-01  -9.6468762437991762e-01  -8.6441275180652299e-01  -4.3330096797431494e-01  2.8889643288495869e-02  2.9933068023198672e-02  6.3044743220646615e-01  9.7147949228359542e-01  1.0500276208651893e+00  9.1889043639891410e-01  5.7696861296352198e-01  -1.8625715941362787e-02  -6.8174911745560651e-01  -9.8397076033698283e-01  -1.0435457396489924e+00  -9.2912989017230607e-01  -5.3384469276489943e-01  2.9933068023198672e-02  6.3587846210422086e-02  6.3196935387885589e-01  8.7124544680391625e-01  9.3528572614916483e-01  8.4878543952776564e-01  4.6486801765853675e-01  -6.1139491405558140e-02  -5.9966011102144356e-01  -8.2354328430126977e-01  -9.2337273034900902e-01  -8.4824905918196447e-01  -5.2714256664739179e-01  6.3587846210422086e-02  4.4453482761087883e-02  3.1729499860408844e-01  4.3360634675417087e-01  5.2712550335382480e-01  5.3278744132325662e-01  2.0027471225398175e-01  -4.8644495897002928e-03  -3.4576744131466597e-01  -4.7148819795448960e-01  -5.8284573322922095e-01  -4.6621296099014975e-01  -2.0463513731529173e-01  4.4453482761087883e-02  5.7370027483027051e-03  2.4524137761740439e-02  -2.8177837491858405e-02  -2.7083645542410929e-02  -6.3064195299310524e-02  -3.5788810444845470e-02  -1.4152916135326115e-02  -3.9699917799542184e-03  3.7458280843221982e-02  4.4708827990559939e-03  4.7429886415914502e-02  -4.2288127044901461e-03  5.7370027483027051e-03  7.1809613914465198e-03  -8.8020070713888225e-03  -5.8501028074494331e-03  1.2621458245577654e-02  -5.9768610203763360e-03  -9.5714994266010885e-03  7.4544543225133441e-04  -7.9844978173059661e-03  9.3309951744646943e-03  2.4504976355050931e-02  1.2435076491174934e-02  6.8095094788926036e-03  7.1809613914465198e-03  -2.1929463078617208e-03  -5.6541490973239544e-02  -4.9249242236250844e-02  -6.3317906007730379e-02  -6.4336181617876798e-02  -3.7697970140491504e-03  1.5369533799910635e-02  5.9875219788007625e-02  9.6572597664057402e-02  4.6257960400597604e-02  8.6258433433049664e-05  1.1363770951067281e-02  -2.1929463078617208e-03  -1.8045664570377172e-02  -8.9789157330329064e-02  -9.3472421839989689e-02  -7.5507858775168260e-02  -7.7200633958705891e-05  4.9769106317023436e-02  1.2858983195905425e-02  2.1832669567111173e-02  9.4517741287396193e-02  7.0308592060172787e-02  7.0299701145647175e-04  3.5827092907574952e-03  -1.8045664570377172e-02  -1.6915001844076582e-02  -5.4617996250990175e-02  -6.3197506608082932e-02  -8.6362724611372919e-03  7.4490233396241085e-02  5.8699260058172227e-02  -2.2503897735096645e-02  5.1988410882930824e-02  7.6487498634428497e-02  5.2060438688102846e-03  -5.8668094065576860e-02  -4.3580929363224101e-02  -1.6915001844076582e-02  -1.5241270997733274e-02  8.0745234833323881e-03  -3.5344878767917622e-03  6.0406956347879230e-02  1.1355066620107025e-01  3.7717146570238877e-02  1.0160073498325740e-02  6.7030898645312711e-02  -5.1173549299991508e-03  -6.6570798403398926e-02  -9.8001155205643051e-02  -8.9484850580916972e-02  -1.5241270997733274e-02  -9.4536743983049260e-03  -3.3980504162254843e-03  2.9420315939412050e-04  5.0943217679223135e-02  9.1167741476424105e-02  5.4182429107950722e-02  1.6810372389245452e-02  5.9340605487658285e-03  -6.1453449870403985e-02  -5.4554871356678601e-02  -4.8788045552254036e-02  -5.4187192599196042e-02  -9.4536743983049260e-03  -4.1218329070980832e-04  8.5011312574941669e-03  1.8510483135623441e-02  1.5585894622969864e-02  1.9635194488073295e-02  1.8561369867227864e-03  7.9549177124826724e-03  -3.2499449203652595e-03  -9.4256503043313577e-03  2.4266925224392884e-02  -2.1233706984535501e-03  -2.6978717840603017e-02  -4.1218329070980832e-04  1.0592724582233882e-02  5.0905611656570905e-02  8.8469542114233454e-02  5.1333871262967630e-02  4.5276433519742809e-03  2.5239126961696368e-03  3.4794895020211322e-03  -5.3964191553013914e-02  -3.7232468446313199e-02  -4.1542798927033241e-02  -6.6593033799271117e-02  -2.5393009180043982e-03  1.0592724582233882e-02  -4.7858277480140330e-03  4.3489321715263846e-02  9.4022253785437590e-02  5.6923151312936265e-02  -1.0086027152584299e-02  -3.3094619014422664e-03  -2.0909846420644133e-02  -9.0614786049264109e-02  -8.9386611725417911e-02  -7.4708968351332380e-02  3.4845667605064310e-03  6.1954226951645416e-02  -4.7858277480140330e-03  -2.7695196809816025e-02  5.5647367205702764e-02  7.3799715209520653e-02  -3.5603853180457682e-03  -6.4552787081939442e-02  -6.0818811333961366e-02  -1.9376092167328669e-02  -4.7561580640415477e-02  -5.8450176033025512e-02  -2.6419976720365277e-03  8.9477540763323413e-02  5.0829649581874539e-02  -2.7695196809816025e-02  1.2244954456596477e-02  6.9570254392215577e-02  6.8060340664552275e-03  -6.9594285046660390e-02  -9.3130140342535972e-02  -9.2026840000513380e-02  -3.1759637440337524e-02  3.1278432519072437e-03  -1.7050086483394249e-03  5.3304761687528686e-02  8.8124489645801302e-02  3.6411881471921738e-02  1.2244954456596477e-02  1.6052204800638781e-02  -3.4439606897665388e-03  -5.9370639614980437e-02  -4.6463504170987976e-02  -4.1215097157733367e-02  -5.8070232841137576e-02  5.6224069116245733e-04  8.7563372697582650e-05  8.9327620000634409e-03  3.2300918944339452e-02  9.4651351936416939e-02  5.1874181322800618e-02  1.6052204800638781e-02  7.1809613914465198e-03  -8.8020070713888225e-03  -5.8501028074494331e-03  1.2621458245577654e-02  -5.9768610203763360e-03  -9.5714994266010885e-03  7.4544543225133441e-04  -7.9844978173059661e-03  9.3309951744646943e-03  2.4504976355050931e-02  1.2435076491174934e-02  6.8095094788926036e-03  7.1809613914465198e-03  -1.6988666287856048e-02  -3.5455937952163098e-02  -6.8739113003113805e-02  -3.0678331222915679e-02  -4.2817478025732235e-02  2.0005921223290035e-02  1.1130447726384553e-02  2.0161035483488486e-02  6.7146011352919602e-02  7.4337493344169021e-03  3.0986786600434690e-02  -3.7773024248110220e-03  -1.6988666287856048e-02  -7.3367239158115150e-03  1.9893454065823457e-01  5.3610542557526675e-01  5.2784016862341854e-01  4.4183573281267530e-01  3.1869347401887105e-01  3.8465171133747089e-02  -2.0698691415184475e-01  -4.8354691758102730e-01  -5.9198987045817786e-01  -4.7841083587274968e-01  -3.4842132295946437e-01  -7.3367239158115150e-03  -5.7001019553564333e-02  4.6101162788095967e-01  8.5252908219416790e-01  9.3534976270802839e-01  8.6326042604154252e-01  6.3345420835723920e-01  6.5348364245860241e-02  -5.3459454486538194e-01  -8.4559188540563179e-01  -9.2478384648259282e-01  -8.1412823641346543e-01  -5.9196446703672656e-01  -5.7001019553564333e-02  -9.4831051186012056e-03  5.8647700138079661e-01  9.2026558700060079e-01  1.0495058467347309e+00  9.7021829974895046e-01  6.2747979507115881e-01  1.1836221724534140e-02  -5.3426696196921375e-01  -9.2549740093184218e-01  -1.0375514384175910e+00  -9.9109131636395387e-01  -6.6929814344592087e-01  -9.4831051186012056e-03  -1.7778319352848078e-02  4.7294273559110156e-01  8.2498615005113585e-01  9.9932137621104877e-01  7.8413529074852806e-01  5.3030312302043947e-01  2.3792261704982762e-02  -4.3672936705082277e-01  -8.8182107011500355e-01  -9.7088365028853096e-01  -7.9044422487560184e-01  -5.5439550165035223e-01  -1.7778319352848078e-02  1.8545596727441133e-02  3.4785858650724633e-01  5.9766388564017425e-01  6.6901516910972403e-01  5.5093426923447064e-01  3.3983746835284251e-01  1.9125695869916411e-03  -3.2694790983545385e-01  -6.4053908611666965e-01  -6.3312599318492480e-01  -5.3213180529815707e-01  -3.6287711053428018e-01  1.8545596727441133e-02  1.2110879479438829e-02  1.9618545624302999e-02  5.0654089238950574e-02  5.5035898087494846e-03  4.1699276991479461e-02  -1.3352726919086523e-02  -5.2002325531140996e-03  -3.9402716941680911e-02  -3.7732546533608642e-02  -6.4093720579275568e-03  -1.2585129173440327e-02  5.7097469105193699e-03  1.2110879479438829e-02  3.9735641909396366e-02  -2.0137379235177369e-01  -4.7400197757425561e-01  -5.8791790747540762e-01  -4.7544021669065006e-01  -3.5174343046845619e-01  -1.7644051475099135e-02  2.2379249230490661e-01  5.4072881179108567e-01  5.4385519523295212e-01  4.3245090752903237e-01  3.0899103678543727e-01  3.9735641909396366e-02  5.7167508358659198e-02  -5.2837612665836498e-01  -8.4557192727387065e-01  -9.2381063638839611e-01  -8.2928412632442716e-01  -6.0112640602006640e-01  -5.7059367465152798e-02  4.8493319657549078e-01  8.5178401967312689e-01  9.4238078680343573e-01  8.6461838922839795e-01  6.3162739998809325e-01  5.7167508358659198e-02  1.7971443698850724e-02  -5.2784686129887204e-01  -9.4666841233166177e-01  -1.0367468805860349e+00  -1.0035525298466841e+00  -6.8504005630069664e-01  -9.5789497505153268e-03  5.8820413478126576e-01  9.2002946060168311e-01  1.0590563937022919e+00  9.8219579210616470e-01  6.3075472995430359e-01  1.7971443698850724e-02  1.2673178760068965e-02  -4.3916627403656405e-01  -8.6012722928935237e-01  -9.6147004423683247e-01  -7.8507636366122557e-01  -5.6394015509025841e-01  -3.1252958323