<?xml version="1.0"?>
<VTKFile type="UnstructuredGrid"  version="0.1"  >
<UnstructuredGrid>
<Piece  NumberOfPoints="2197" NumberOfCells="10368">
<Points>
<DataArray  type="Float64"  NumberOfComponents="3"  format="ascii">-3.141592653589793 -3.141592653589793 -3.141592653589793  -2.617993877991494 -3.141592653589793 -3.141592653589793  -2.094395102393196 -3.141592653589793 -3.141592653589793  -1.570796326794897 -3.141592653589793 -3.141592653589793  -1.047197551196598 -3.141592653589793 -3.141592653589793  -0.5235987755982987 -3.141592653589793 -3.141592653589793  0 -3.141592653589793 -3.141592653589793  0.5235987755982987 -3.141592653589793 -3.141592653589793  1.047197551196597 -3.141592653589793 -3.141592653589793  1.570796326794897 -3.141592653589793 -3.141592653589793  2.094395102393196 -3.141592653589793 -3.141592653589793  2.617993877991494 -3.141592653589793 -3.141592653589793  3.141592653589793 -3.141592653589793 -3.141592653589793  -3.141592653589793 -2.617993877991494 -3.141592653589793  -2.617993877991494 -2.617993877991494 -3.141592653589793  -2.094395102393196 -2.617993877991494 -3.141592653589793  -1.570796326794897 -2.617993877991494 -3.141592653589793  -1.047197551196598 -2.617993877991494 -3.141592653589793  -0.5235987755982987 -2.617993877991494 -3.141592653589793  0 -2.617993877991494 -3.141592653589793  0.5235987755982987 -2.617993877991494 -3.141592653589793  1.047197551196597 -2.617993877991494 -3.141592653589793  1.570796326794897 -2.617993877991494 -3.141592653589793  2.094395102393196 -2.617993877991494 -3.141592653589793  2.617993877991494 -2.617993877991494 -3.141592653589793  3.141592653589793 -2.617993877991494 -3.141592653589793  -3.141592653589793 -2.094395102393196 -3.141592653589793  -2.617993877991494 -2.094395102393196 -3.141592653589793  -2.094395102393196 -2.094395102393196 -3.141592653589793  -1.570796326794897 -2.094395102393196 -3.141592653589793  -1.047197551196598 -2.094395102393196 -3.141592653589793  -0.5235987755982987 -2.094395102393196 -3.141592653589793  0 -2.094395102393196 -3.141592653589793  0.5235987755982987 -2.094395102393196 -3.141592653589793  1.047197551196597 -2.094395102393196 -3.141592653589793  1.570796326794897 -2.094395102393196 -3.141592653589793  2.094395102393196 -2.094395102393196 -3.141592653589793  2.617993877991494 -2.094395102393196 -3.141592653589793  3.141592653589793 -2.094395102393196 -3.141592653589793  -3.141592653589793 -1.570796326794897 -3.141592653589793  -2.617993877991494 -1.570796326794897 -3.141592653589793  -2.094395102393196 -1.570796326794897 -3.141592653589793  -1.570796326794897 -1.570796326794897 -3.141592653589793  -1.047197551196598 -1.570796326794897 -3.141592653589793  -0.5235987755982987 -1.570796326794897 -3.141592653589793  0 -1.570796326794897 -3.141592653589793  0.5235987755982987 -1.570796326794897 -3.141592653589793  1.047197551196597 -1.570796326794897 -3.141592653589793  1.570796326794897 -1.570796326794897 -3.141592653589793  2.094395102393196 -1.570796326794897 -3.141592653589793  2.617993877991494 -1.570796326794897 -3.141592653589793  3.141592653589793 -1.570796326794897 -3.141592653589793  -3.141592653589793 -1.047197551196598 -3.141592653589793  -2.617993877991494 -1.047197551196598 -3.141592653589793  -2.094395102393196 -1.047197551196598 -3.141592653589793  -1.570796326794897 -1.047197551196598 -3.141592653589793  -1.047197551196598 -1.047197551196598 -3.141592653589793  -0.5235987755982987 -1.047197551196598 -3.141592653589793  0 -1.047197551196598 -3.141592653589793  0.5235987755982987 -1.047197551196598 -3.141592653589793  1.047197551196597 -1.047197551196598 -3.141592653589793  1.570796326794897 -1.047197551196598 -3.141592653589793  2.094395102393196 -1.047197551196598 -3.141592653589793  2.617993877991494 -1.047197551196598 -3.141592653589793  3.141592653589793 -1.047197551196598 -3.141592653589793  -3.141592653589793 -0.5235987755982987 -3.141592653589793  -2.617993877991494 -0.5235987755982987 -3.141592653589793  -2.094395102393196 -0.5235987755982987 -3.141592653589793  -1.570796326794897 -0.5235987755982987 -3.141592653589793  -1.047197551196598 -0.5235987755982987 -3.141592653589793  -0.5235987755982987 -0.5235987755982987 -3.141592653589793  0 -0.5235987755982987 -3.141592653589793  0.5235987755982987 -0.5235987755982987 -3.141592653589793  1.047197551196597 -0.5235987755982987 -3.141592653589793  1.570796326794897 -0.5235987755982987 -3.141592653589793  2.094395102393196 -0.5235987755982987 -3.141592653589793  2.617993877991494 -0.5235987755982987 -3.141592653589793  3.141592653589793 -0.5235987755982987 -3.141592653589793  -3.141592653589793 0 -3.141592653589793  -2.617993877991494 0 -3.141592653589793  -2.094395102393196 0 -3.141592653589793  -1.570796326794897 0 -3.141592653589793  -1.047197551196598 0 -3.141592653589793  -0.5235987755982987 0 -3.141592653589793  0 0 -3.141592653589793  0.5235987755982987 0 -3.141592653589793  1.047197551196597 0 -3.141592653589793  1.570796326794897 0 -3.141592653589793  2.094395102393196 0 -3.141592653589793  2.617993877991494 0 -3.141592653589793  3.141592653589793 0 -3.141592653589793  -3.141592653589793 0.5235987755982987 -3.141592653589793  -2.617993877991494 0.5235987755982987 -3.141592653589793  -2.094395102393196 0.5235987755982987 -3.141592653589793  -1.570796326794897 0.5235987755982987 -3.141592653589793  -1.047197551196598 0.5235987755982987 -3.141592653589793  -0.5235987755982987 0.5235987755982987 -3.141592653589793  0 0.5235987755982987 -3.141592653589793  0.5235987755982987 0.5235987755982987 -3.141592653589793  1.047197551196597 0.5235987755982987 -3.141592653589793  1.570796326794897 0.5235987755982987 -3.141592653589793  2.094395102393196 0.5235987755982987 -3.141592653589793  2.617993877991494 0.5235987755982987 -3.141592653589793  3.141592653589793 0.5235987755982987 -3.141592653589793  -3.141592653589793 1.047197551196597 -3.141592653589793  -2.617993877991494 1.047197551196597 -3.141592653589793  -2.094395102393196 1.047197551196597 -3.141592653589793  -1.570796326794897 1.047197551196597 -3.141592653589793  -1.047197551196598 1.047197551196597 -3.141592653589793  -0.5235987755982987 1.047197551196597 -3.141592653589793  0 1.047197551196597 -3.141592653589793  0.5235987755982987 1.047197551196597 -3.141592653589793  1.047197551196597 1.047197551196597 -3.141592653589793  1.570796326794897 1.047197551196597 -3.141592653589793  2.094395102393196 1.047197551196597 -3.141592653589793  2.617993877991494 1.047197551196597 -3.141592653589793  3.141592653589793 1.047197551196597 -3.141592653589793  -3.141592653589793 1.570796326794897 -3.141592653589793  -2.617993877991494 1.570796326794897 -3.141592653589793  -2.094395102393196 1.570796326794897 -3.141592653589793  -1.570796326794897 1.570796326794897 -3.141592653589793  -1.047197551196598 1.570796326794897 -3.141592653589793  -0.5235987755982987 1.570796326794897 -3.141592653589793  0 1.570796326794897 -3.141592653589793  0.5235987755982987 1.570796326794897 -3.141592653589793  1.047197551196597 1.570796326794897 -3.141592653589793  1.570796326794897 1.570796326794897 -3.141592653589793  2.094395102393196 1.570796326794897 -3.141592653589793  2.617993877991494 1.570796326794897 -3.141592653589793  3.141592653589793 1.570796326794897 -3.141592653589793  -3.141592653589793 2.094395102393196 -3.141592653589793  -2.617993877991494 2.094395102393196 -3.141592653589793  -2.094395102393196 2.094395102393196 -3.141592653589793  -1.570796326794897 2.094395102393196 -3.141592653589793  -1.047197551196598 2.094395102393196 -3.141592653589793  -0.5235987755982987 2.094395102393196 -3.141592653589793  0 2.094395102393196 -3.141592653589793  0.5235987755982987 2.094395102393196 -3.141592653589793  1.047197551196597 2.094395102393196 -3.141592653589793  1.570796326794897 2.094395102393196 -3.141592653589793  2.094395102393196 2.094395102393196 -3.141592653589793  2.617993877991494 2.094395102393196 -3.141592653589793  3.141592653589793 2.094395102393196 -3.141592653589793  -3.141592653589793 2.617993877991494 -3.141592653589793  -2.617993877991494 2.617993877991494 -3.141592653589793  -2.094395102393196 2.617993877991494 -3.141592653589793  -1.570796326794897 2.617993877991494 -3.141592653589793  -1.047197551196598 2.617993877991494 -3.141592653589793  -0.5235987755982987 2.617993877991494 -3.141592653589793  0 2.617993877991494 -3.141592653589793  0.5235987755982987 2.617993877991494 -3.141592653589793  1.047197551196597 2.617993877991494 -3.141592653589793  1.570796326794897 2.617993877991494 -3.141592653589793  2.094395102393196 2.617993877991494 -3.141592653589793  2.617993877991494 2.617993877991494 -3.141592653589793  3.141592653589793 2.617993877991494 -3.141592653589793  -3.141592653589793 3.141592653589793 -3.141592653589793  -2.617993877991494 3.141592653589793 -3.141592653589793  -2.094395102393196 3.141592653589793 -3.141592653589793  -1.570796326794897 3.141592653589793 -3.141592653589793  -1.047197551196598 3.141592653589793 -3.141592653589793  -0.5235987755982987 3.141592653589793 -3.141592653589793  0 3.141592653589793 -3.141592653589793  0.5235987755982987 3.141592653589793 -3.141592653589793  1.047197551196597 3.141592653589793 -3.141592653589793  1.570796326794897 3.141592653589793 -3.141592653589793  2.094395102393196 3.141592653589793 -3.141592653589793  2.617993877991494 3.141592653589793 -3.141592653589793  3.141592653589793 3.141592653589793 -3.141592653589793  -3.141592653589793 -3.141592653589793 -2.617993877991494  -2.617993877991494 -3.141592653589793 -2.617993877991494  -2.094395102393196 -3.141592653589793 -2.617993877991494  -1.570796326794897 -3.141592653589793 -2.617993877991494  -1.047197551196598 -3.141592653589793 -2.617993877991494  -0.5235987755982987 -3.141592653589793 -2.617993877991494  0 -3.141592653589793 -2.617993877991494  0.5235987755982987 -3.141592653589793 -2.617993877991494  1.047197551196597 -3.141592653589793 -2.617993877991494  1.570796326794897 
[...]
<PointData  Scalars="f_306412"> 
<DataArray  type="Float64"  Name="f_306412"  format="ascii">4.8559396927559499e-02  5.7392560735221775e-02  -4.2489420961241198e-02  1.6604819814670477e-02  -6.0792719175386707e-03  -2.9131008235761504e-02  -6.3606096198721498e-02  -3.4917127281075225e-02  -9.7179529538148918e-03  7.9763219460265000e-03  -4.8494507844223211e-02  4.3489086144426328e-02  4.8559396927559499e-02  4.3020568952070910e-02  -7.5755333508191114e-01  -1.0384641616417984e+00  -1.3058899597463793e+00  -9.8387254556172232e-01  -9.6384224651641282e-01  -4.9144868152632450e-02  7.4105249655082139e-01  1.1711664565428963e+00  1.2387594762458893e+00  9.4858319459512852e-01  9.5446947034863860e-01  4.3020568952070910e-02  8.8080201596739370e-03  -1.1720829642861874e+00  -1.3801677034720181e+00  -1.0461022420096666e+00  -1.5817574660704063e+00  -9.4443316589114967e-01  4.5745408794533864e-02  1.0269740808668217e+00  1.3860941555224713e+00  1.1047979871578710e+00  1.5899249434984735e+00  9.7683191403464908e-01  8.8080201596739370e-03  -2.1722111507061454e-02  -1.2296942818538148e+00  -1.1181319215800758e+00  -1.6999725535190680e+00  -1.1071668939799384e+00  -1.2359143693185997e+00  -1.8340712432846084e-02  1.3132361394146168e+00  1.0492694766831305e+00  1.6857538091002191e+00  1.0459609074435947e+00  1.3099523652126588e+00  -2.1722111507061454e-02  4.2865240014259662e-02  -9.4008359067578484e-01  -1.5957634672278274e+00  -1.0447767096919567e+00  -1.3808984443740040e+00  -1.1741274715018513e+00  1.6133326523630486e-02  9.8805966771692677e-01  1.5884136202476562e+00  1.0975102835736374e+00  1.3793390822590486e+00  1.0234061071888154e+00  4.2865240014259662e-02  -4.3256442072807863e-02  -9.7390863897954627e-01  -9.7661443493135147e-01  -1.3109919596475570e+00  -1.0247540211034885e+00  -7.3783998410880491e-01  3.8429522524918984e-02  9.6534361555427561e-01  9.4287067172954786e-01  1.2271866086113792e+00  1.1698343480515301e+00  7.3914731510056797e-01  -4.3256442072807863e-02  -3.1331365182066695e-02  -3.4586208624267555e-02  -1.3949869989652806e-02  2.4364675221740326e-02  -3.5932059843696802e-02  4.5849801217553547e-02  3.8694899042831542e-02  4.7136574168846063e-02  -4.6521798157561897e-02  1.6492364253752285e-02  -1.7434313254848337e-02  -5.4726414699010989e-02  -3.1331365182066695e-02  -5.2837779982538371e-02  7.4284933137491960e-01  1.1715363471527005e+00  1.2376497441799656e+00  9.5167852818094290e-01  9.6577608351959088e-01  3.3409067655283974e-02  -7.3808094730749052e-01  -1.0304251670875118e+00  -1.2988915334504343e+00  -9.8187994368813525e-01  -9.5144622216213892e-01  -5.2837779982538371e-02  3.9833832874565281e-02  1.0365212688814129e+00  1.3840293977754041e+00  1.1032732288599079e+00  1.5908882403020530e+00  9.8009329235867804e-01  8.8092752613687184e-03  -1.1766273879823230e+00  -1.3810192866490834e+00  -1.0523336465626734e+00  -1.5839272593428178e+00  -9.4618520028473707e-01  3.9833832874565281e-02  -1.6463242777442922e-02  1.3178452049160518e+00  1.0549882021966841e+00  1.7004506793797385e+00  1.0462584688430374e+00  1.3055012826913790e+00  -2.2972286710693360e-02  -1.2368145025247941e+00  -1.1102607650313043e+00  -1.6949080722579255e+00  -1.1053224954306269e+00  -1.2366693461116391e+00  -1.6463242777442922e-02  1.5805202160937937e-02  9.8230614477494771e-01  1.5892279095673745e+00  1.1015414322403354e+00  1.3865926730605731e+00  1.0214649406931477e+00  3.8056393199450832e-02  -9.5195622044460237e-01  -1.5697770189507974e+00  -1.0556807203416232e+00  -1.3772513745927275e+00  -1.1684908321987579e+00  1.5805202160937937e-02  3.8317488609572799e-02  9.6838133095066747e-01  9.4618495365027089e-01  1.2351802679711095e+00  1.1765720172058931e+00  7.4726481353054808e-01  -5.8096254914377622e-02  -9.5400367961561849e-01  -9.8114310758939161e-01  -1.2995157832759294e+00  -1.0262017975846589e+00  -7.3841980238156246e-01  3.8317488609572799e-02  4.8559396927559499e-02  5.7392560735221775e-02  -4.2489420961241198e-02  1.6604819814670477e-02  -6.0792719175386707e-03  -2.9131008235761504e-02  -6.3606096198721498e-02  -3.4917127281075225e-02  -9.7179529538148918e-03  7.9763219460265000e-03  -4.8494507844223211e-02  4.3489086144426328e-02  4.8559396927559499e-02  5.9153624779435525e-02  -1.6770358782665338e-03  -5.4678364260151990e-02  5.6671416934039945e-03  -7.5525510024205392e-02  -5.0998726300652060e-02  -3.1766316940804125e-02  -1.6843751091030099e-03  9.4588644981511427e-03  -1.7422223178148132e-02  3.2734339592177669e-02  9.6651508535497199e-02  5.9153624779435525e-02  -2.0425437412899181e-02  -6.8717831272469987e-01  -9.1809586053062830e-01  -1.0570580004234063e+00  -9.8596253837195846e-01  -7.5512494796483387e-01  -1.6015319156918683e-02  6.9047025305729448e-01  9.6615946830945221e-01  9.8911727592292764e-01  9.4010681602980339e-01  7.7618808131624262e-01  -2.0425437412899181e-02  -1.5719533791969043e-02  -9.7423408012993984e-01  -1.1679746605021455e+00  -1.1911851624764289e+00  -1.4008690370493555e+00  -8.0883017603109142e-01  6.0757671973931546e-02  9.0940527697998386e-01  1.1612096969438919e+00  1.2805556354773475e+00  1.3617793782840373e+00  8.3612865888351129e-01  -1.5719533791969043e-02  1.9992862959786192e-02  -9.8882403169425892e-01  -1.2837532737989852e+00  -1.5340447268139188e+00  -1.2150589146946100e+00  -1.0549424970107677e+00  -1.6664973623850396e-03  1.0442175828378921e+00  1.1928869783377818e+00  1.5323823554081935e+00  1.1316621833856040e+00  1.0913505903628451e+00  1.9992862959786192e-02  -3.3902911327175135e-02  -9.5499251039816546e-01  -1.3534726965406765e+00  -1.1274257658297639e+00  -1.3341276049177793e+00  -1.0710180654436392e+00  7.8637914307307516e-02  9.8377744623380725e-01  1.3828297273864809e+00  1.2058970002721088e+00  1.3234202040689691e+00  8.8346461865671722e-01  -3.3902911327175135e-02  -9.0300839408289521e-02  -7.8349141511708376e-01  -8.3284007188742337e-01  -1.0864150349279578e+00  -8.8192971400705877e-01  -5.4355722411926166e-01  5.7741898067453508e-02  7.5622323266654079e-01  8.2073670882376137e-01  1.0577473314545021e+00  1.0638530085247973e+00  5.5317909243192198e-01  -9.0300839408289521e-02  -5.0771174891676082e-02  2.1655349116085926e-03  9.0527624696854596e-03  -1.9170262232305346e-02  3.5885817348135576e-02  8.8440473081541585e-02  2.9489170322264068e-02  1.2222400863175583e-02  -5.5943295174839050e-02  1.8399357353419698e-03  -8.0683418025945183e-02  -5.1962021350382553e-02  -5.0771174891676082e-02  -2.2708757054032934e-03  6.7797088442190256e-01  9.6595355258924598e-01  9.8883845465129205e-01  9.5212969990205132e-01  7.9017366831004121e-01  8.8938789559657328e-03  -6.9003336578873165e-01  -9.0491331705699440e-01  -1.0439836021130244e+00  -9.8267690310135614e-01  -7.5761566196992358e-01  -2.2708757054032934e-03  5.6041191153517654e-02  9.1609899316954346e-01  1.1618947751418263e+00  1.2827123540455181e+00  1.3604837006395523e+00  8.3291538782222363e-01  -2.2621478318084736e-02  -9.6509853025262149e-01  -1.1681282874143253e+00  -1.1915462340915013e+00  -1.3834640731683110e+00  -8.1022112555479531e-01  5.6041191153517654e-02  -2.6977421644679735e-03  1.0531047271567739e+00  1.1924094359112758e+00  1.5454206709299083e+00  1.1218463385637036e+00  1.0956735908286006e+00  1.2420651266001720e-02  -9.8713060710129097e-01  -1.2777211359242284e+00  -1.5375980742617905e+00  -1.2168640772826520e+00  -1.0540982037385389e+00  -2.6977421644679735e-03  8.9523580690493751e-02  9.8590696051233162e-01  1.3872712180923614e+00  1.2119942293576873e+00  1.3308586343419442e+00  8.8714398996994681e-01  -4.3990632220993649e-02  -9.4601241928971835e-01  -1.3594510955788675e+00  -1.1346450979779974e+00  -1.3348350911686671e+00  -1.0779526774600383e+00  8.9523580690493751e-02  6.5478450430970253e-02  7.6734961339054919e-01  8.1020060336434685e-01  1.0555877539328946e+00  1.0746059866941686e+00  5.5499291558591302e-01  -8.0538617379392094e-02  -7.9236888180321385e-01  -8.2336157234155161e-01  -1.0737077811379390e+00  -8.8323528853648903e-01  -5.5903406367088537e-01  6.5478450430970253e-02  5.9153624779435525e-02  -1.6770358782665338e-03  -5.4678364260151990e-02  5.6671416934039945e-03  -7.5525510024205392e-02  -5.0998726300652060e-02  -3.1766316940804125e-02  -1.6843751091030099e-03  9.4588644981511427e-03  -1.7422223178148132e-02  3.2734339592177669e-02  9.6651508535497199e-02  5.9153624779435525e-02  2.1893513334782554e-03  2.5494423942426115e-02  -3.0496273225561876e-02  -2.3046161616014530e-02  -6.9423961900412084e-02  -3.1975918630594957e-02  -1.1222379692606940e-02  -6.3679422090639187e-03  3.8444231056837960e-02  -1.8290133154464125e-03  4.8064694193065825e-02  -9.4301649167520905e-03  2.1893513334782554e-03  2.6953764518113762e-02  -3.7143364312616745e-01  -5.5607365407652098e-01  -6.2931515788433823e-01  -6.4020098075703369e-01  -3.4728949756638117e-01  -1.5515122349143340e-02  3.5905610832861212e-01  5.5976277357307747e-01  6.9526990571289571e-01  6.1998634400911556e-01  3.5854866893880077e-01  2.6953764518113762e-02  -2.6420603202302669e-02  -5.6609474558522221e-01  -7.7779790193145548e-01  -9.7760673512341201e-01  -8.7132099632874749e-01  -4.4157536068384345e-01  1.9515060261414505e-02  5.5622893734765555e-01  7.8532364280931899e-01  9.9493151720429018e-01  8.2103999016009677e-01  4.6933742208189150e-01  -2.6420603202302669e-02  -2.2891010685952866e-03  -6.9095909179066040e-01  -9.9844999305152005e-01  -1.0394894602844191e+00  -9.4709167850494991e-01  -5.2661455930374446e-01  2.7721047412015518e-02  6.3323528671205220e-01  9.7380484235104170e-01  1.0345342613630493e+00  9.3465099100536742e-01  5.9031242559972985e-01  -2.2891010685952866e-03  -6.1123241347656537e-02  -6.1098864945997311e-01  -8.1891508359862275e-01  -9.3248142965209713e-01  -8.5637021459544760e-01  -5.3093142344024435e-01  7.4220520598588358e-02  6.4747429468282525e-01  8.7851323806978476e-01  9.3883931295042089e-01  8.4212971381831470e-01  4.8256865299832330e-01  -6.1123241347656537e-02  -3.4457806895609980e-03  -3.5993412617358034e-01  -4.7903341808088151e-01  -5.8768241674012256e-01  -4.6592321321642088e-01  -1.9123186264807840e-01  3.3530168221695918e-02  3.3205412069515255e-01  4.4153219192646137e-01  5.2107262296963219e-01  5.3665676129436490e-01  2.0261902425209999e-01  -3.4457806895609980e-03  -2.0878888959821731e-02  -1.3419264808349023e-02  3.5347935548623241e-02  1.5720071930460256e-03  6.0682583249434846e-02  3.2349080527722071e-03  1.9198320796474252e-02  2.2122340108422130e-02  -3.6193078993103887e-02  -2.6007203746372498e-02  -6.5794931259893899e-02  -3.6215433737306880e-02  -2.0878888959821731e-02  -1.8742032629802695e-02  3.5369281996453744e-01  5.5298958775180573e-01  7.0154037898699273e-01  6.1825935423205913e-01  3.6756839049799817e-01  2.1847263105403539e-02  -3.6635311166119822e-01  -5.4919898920003096e-01  -6.2194548211969303e-01  -6.4391663510308228e-01  -3.3710767945905806e-01  -1.8742032629802695e-02  3.0660058084524704e-02  5.3922296419446070e-01  7.8424401496391816e-01  9.9366310206316899e-01  8.1768180718639127e-01  4.6719609891477043e-01  -4.0474663436224884e-02  -5.6594156423609587e-01  -7.8285122653936934e-01  -9.6275552198517855e-01  -8.7138731218446386e-01  -4.3526340862612023e-01  3.0660058084524704e-02  2.6015703464858809e-02  6.3517692939682369e-01  9.7028162893544245e-01  1.0488713907641680e+00  9.2298532900541341e-01  5.8794730440065590e-01  -1.1873678523981272e-02  -6.9643219715853077e-01  -9.8795871580641126e-01  -1.0420677615821525e+00  -9.4053512996364974e-01  -5.3202460537220475e-01  2.6015703464858809e-02  6.9746062445950593e-02  6.4564643563333346e-01  8.7856506588219319e-01  9.4732953664957942e-01  8.5997123794109265e-01  4.6786399452897115e-01  -6.2695959265417697e-02  -6.1334871458601503e-01  -8.2218565961119505e-01  -9.2824933617128103e-01  -8.6022744599876799e-01  -5.3743990457208390e-01  6.9746062445950593e-02  4.1608539704448118e-02  3.2644733884452531e-01  4.3512804018275475e-01  5.2499611341056429e-01  5.4378764086897802e-01  2.0069886932084038e-01  -2.8730184288717212e-04  -3.5253444942354661e-01  -4.7107067269936737e-01  -5.9455127322977341e-01  -4.6939988270223998e-01  -2.0469178420594444e-01  4.1608539704448118e-02  2.1893513334782554e-03  2.5494423942426115e-02  -3.0496273225561876e-02  -2.3046161616014530e-02  -6.9423961900412084e-02  -3.1975918630594957e-02  -1.1222379692606940e-02  -6.3679422090639187e-03  3.8444231056837960e-02  -1.8290133154464125e-03  4.8064694193065825e-02  -9.4301649167520905e-03  2.1893513334782554e-03  7.1926221894698522e-03  -6.7894542905591066e-03  -1.7859444984921777e-03  2.2095629939426913e-02  -1.5760050684979821e-03  -7.4137362457708592e-03  9.3878317127109778e-04  -1.0850995735878654e-02  4.9410543680299401e-03  1.8565046634740040e-02  8.8510396828142025e-03  4.0939478588047301e-03  7.1926221894698522e-03  4.1904550322502724e-04  -5.8754338338949719e-02  -4.6021730002136017e-02  -6.6610516455404500e-02  -7.4153598867812781e-02  -3.8777681416741925e-03  1.3619944700559050e-02  6.2102540403697011e-02  1.0314185497925636e-01  4.8210951941337489e-02  -2.2406590773306387e-03  1.1644233509036029e-02  4.1904550322502724e-04  -1.3742238570238492e-02  -9.6033866934834969e-02  -9.8964421863435695e-02  -8.1640134675508791e-02  1.1398057642552781e-04  5.8668706379357304e-02  9.0212563469439875e-03  1.7241097988653489e-02  9.9602452396854432e-02  7.4496223276745974e-02  1.2160717183762710e-03  5.3677644548870435e-03  -1.3742238570238492e-02  -1.0419620619143515e-02  -5.6683835558098992e-02  -6.6955922301270621e-02  -9.1468186674071826e-03  8.0741164885949415e-02  6.1470295777114568e-02  -3.2093972562282788e-02  5.4758008341743485e-02  8.2606305073566505e-02  5.7183428629120122e-03  -6.1831207296981987e-02  -4.4653336890230322e-02  -1.0419620619143515e-02  -1.1652496655084133e-02  1.0726436946189718e-02  -3.3146122490200032e-03  6.3786280776842411e-02  1.2004229479581439e-01  3.3984342094968339e-02  5.8023948921594277e-03  7.7517327404848804e-02  -5.6074323282913384e-03  -7.2433590322072222e-02  -1.0373221736113443e-01  -9.5896344133698741e-02  -1.1652496655084133e-02  -6.5529136433121211e-03  -3.3731199869967174e-03  -2.0957569911857822e-03  5.2600261069914250e-02  9.7216671009254782e-02  5.6185967705536986e-02  1.4927658631534906e-02  6.0507181737960210e-03  -7.1122009958851914e-02  -5.7404070642500409e-02  -4.5635800206217624e-02  -5.6215038629679935e-02  -6.5529136433121211e-03  -1.0755469664290955e-03  5.9028109630834468e-03  1.4858805008895184e-02  9.4083422117666460e-03  1.5748846195868867e-02  -6.9611806205086674e-04  8.7354046699651827e-03  -9.4704839823479250e-04  -5.4948514105415914e-03  3.4442049208946023e-02  2.1403204044707822e-03  -2.5499590305614762e-02  -1.0755469664290955e-03  9.0294374330979962e-03  5.2877519939963979e-02  9.4679145573602297e-02  5.2346565838292489e-02  2.9088496741035597e-03  2.3466578574700696e-03  6.3387429882561875e-03  -5.6101981993215706e-02  -3.3113664450822942e-02  -4.4143172816472238e-02  -7.6332907895149779e-02  -3.2403235155859149e-03  9.0294374330979962e-03  -9.8513149638968650e-03  4.0666486990612635e-02  9.9210556929714241e-02  6.0332828227550886e-02  -1.0436291593544256e-02  -1.3207607121274510e-03  -1.6252263669716518e-02  -9.6105862608547726e-02  -9.4786827907145044e-02  -8.0604008069933272e-02  3.3085657388067700e-03  7.1937489435547355e-02  -9.8513149638968650e-03  -3.7572828878983118e-02  5.8809568437263218e-02  7.9916414693804616e-02  -3.7680973256447375e-03  -6.8393036355898273e-02  -6.2693975960775569e-02  -1.4375813356167021e-02  -4.8860727307624939e-02  -6.2236743363324423e-02  -3.0587817652723221e-03  9.6685317731459913e-02  5.3288579923320534e-02  -3.7572828878983118e-02  8.2578979899369711e-03  7.9444365980775283e-02  7.3521099293535844e-03  -7.5443194439476904e-02  -9.8420912680053471e-02  -9.8401964918774371e-02  -2.8048749261968944e-02  4.9155795422804634e-03  -1.5348411530143830e-03  5.5471824735580384e-02  9.3252081561334674e-02  3.2720807758660646e-02  8.2578979899369711e-03  1.4065090078944681e-02  -3.2489598136316283e-03  -6.9291935308598049e-02  -4.9000311672753066e-02  -3.7757247408702177e-02  -6.0436021537854288e-02  3.3276995110311817e-03  2.8564971263562072e-04  6.8538147732763446e-03  3.3248964836058971e-02  1.0087524208474931e-01  5.4156472892203308e-02  1.4065090078944681e-02  7.1926221894698522e-03  -6.7894542905591066e-03  -1.7859444984921777e-03  2.2095629939426913e-02  -1.5760050684979821e-03  -7.4137362457708592e-03  9.3878317127109778e-04  -1.0850995735878654e-02  4.9410543680299401e-03  1.8565046634740040e-02  8.8510396828142025e-03  4.0939478588047301e-03  7.1926221894698522e-03  -1.4250949455732522e-02  -3.2753124507295117e-02  -7.4489436417755781e-02  -2.7220246119106999e-02  -4.5641942339933642e-02  2.0783033149129590e-02  8.7957617148785115e-03  1.5737620276531056e-02  6.8685975414054773e-02  -5.1656747286233031e-05  3.2212581768134768e-02  -6.4549573972450683e-03  -1.4250949455732522e-02  -2.2411188576271037e-03  1.9922390109369184e-01  5.4723479594572466e-01  5.2584771270220843e-01  4.4441729840843514e-01  3.2786526758829349e-01  3.4951723875653339e-02  -2.0754348717744958e-01  -4.8815484056518177e-01  -6.0288766151403661e-01  -4.7927855694692434e-01  -3.5551011539753974e-01  -2.2411188576271037e-03  -5.8964413466940951e-02  4.6421504321206369e-01  8.6408102513692342e-01  9.4717425122810639e-01  8.6935508201060308e-01  6.4748010626013863e-01  7.1560890601661833e-02  -5.4530935509466838e-01  -8.5718260812498182e-01  -9.2985343036110668e-01  -8.1220294300085805e-01  -6.0390893467176598e-01  -5.8964413466940951e-02  -2.1361637822713184e-03  5.9796360596676490e-01  9.2536207924147773e-01  1.0474706139559318e+00  9.6864524981956468e-01  6.3242659360160502e-01  7.8288603191095218e-03  -5.3272232916830697e-01  -9.3679711222315620e-01  -1.0350711255144696e+00  -9.9641856284725183e-01  -6.8353089617418461e-01  -2.1361637822713184e-03  -1.8224278271490781e-02  4.7350516433660350e-01  8.2354772089513728e-01  1.0043684802581438e+00  7.7544117003921087e-01  5.3707929553653577e-01  2.5043760541373607e-02  -4.3874265868110696e-01  -8.9014538510299335e-01  -9.6899560963775189e-01  -7.8171089952836759e-01  -5.6315810851130321e-01  -1.8224278271490781e-02  2.2936483676634565e-02  3.5444326340022375e-01  6.1061331489908266e-01  6.8309121628173575e-01  5.5893406961006808e-01  3.4706775602959672e-01  3.4205066836330961e-03  -3.3714173620039417e-01  -6.5396363516586831e-01  -6.3857160225172160e-01  -5.3902956839044058e-01  -3.7135705434803601e-01  2.2936483676634565e-02  8.6684596851172770e-03  1.5372001064064686e-02  5.1545880818039388e-02  -1.5896924132588115e-03  4.3051994436616024e-02  -1.6968205556716361e-02  -1.9683102195407667e-03  -3.6986648025117093e-02  -4.2056285021367497e-02  -1.0888598259803147e-03  -1.3415387429795473e-02  5.1125565891264263e-03  8.6684596851172770e-03  3.6979099986097476e-02  -2.0130457995463741e-01  -4.7769154114316476e-01  -5.9961946231778385e-01  -4.7526344531364967e-01  -3.5898679242922565e-01  -1.3149977885812222e-02  2.2529216283975553e-01  5.5329985246593849e-01  5.4327125897132644e-01  4.3416048189844331e-01  3.1855269770198125e-01  3.6979099986097476e-02  6.1931294984143868e-02  -5.3940357893476742e-01  -8.5723052352739582e-01  -9.2877553882138364e-01  -8.2817140022227076e-01  -6.1478226025403904e-01  -5.7796895802617460e-02  4.8924321392421494e-01  8.6358097850036186e-01  9.5425389870682742e-01  8.7173286365548686e-01  6.4451882345342792e-01  6.1931294984143868e-02  1.4426306829711513e-02  -5.2622597384855763e-01  -9.5894622199843338e-01  -1.0345537873385173e+00  -1.0099090673673885e+00  -6.9978549713125682e-01  -3.0913878594526203e-03  5.9965856406426565e-01  9.2468629233223831e-01  1.0584536410051943e+00  9.8040884692822361e-01  6.3512400978939221e-01  1.4426306829711513e-02  1.3704829993953617e-02  -4.4074409602959014e-01  -8.6660031560899109e-01  -9.5918131970462939e-01  -7.7495769715973484e-01  -5.7256836861910476e-01  -3.1854