<?xml version="1.0"?>
<VTKFile type="UnstructuredGrid"  version="0.1"  >
<UnstructuredGrid>
<Piece  NumberOfPoints="9261" NumberOfCells="48000">
<Points>
<DataArray  type="Float64"  NumberOfComponents="3"  format="ascii">-3.141592653589793 -3.141592653589793 -3.141592653589793  -2.827433388230814 -3.141592653589793 -3.141592653589793  -2.513274122871834 -3.141592653589793 -3.141592653589793  -2.199114857512855 -3.141592653589793 -3.141592653589793  -1.884955592153876 -3.141592653589793 -3.141592653589793  -1.570796326794897 -3.141592653589793 -3.141592653589793  -1.256637061435917 -3.141592653589793 -3.141592653589793  -0.9424777960769379 -3.141592653589793 -3.141592653589793  -0.6283185307179586 -3.141592653589793 -3.141592653589793  -0.3141592653589793 -3.141592653589793 -3.141592653589793  0 -3.141592653589793 -3.141592653589793  0.3141592653589789 -3.141592653589793 -3.141592653589793  0.6283185307179586 -3.141592653589793 -3.141592653589793  0.9424777960769379 -3.141592653589793 -3.141592653589793  1.256637061435917 -3.141592653589793 -3.141592653589793  1.570796326794897 -3.141592653589793 -3.141592653589793  1.884955592153876 -3.141592653589793 -3.141592653589793  2.199114857512855 -3.141592653589793 -3.141592653589793  2.513274122871834 -3.141592653589793 -3.141592653589793  2.827433388230814 -3.141592653589793 -3.141592653589793  3.141592653589793 -3.141592653589793 -3.141592653589793  -3.141592653589793 -2.827433388230814 -3.141592653589793  -2.827433388230814 -2.827433388230814 -3.141592653589793  -2.513274122871834 -2.827433388230814 -3.141592653589793  -2.199114857512855 -2.827433388230814 -3.141592653589793  -1.884955592153876 -2.827433388230814 -3.141592653589793  -1.570796326794897 -2.827433388230814 -3.141592653589793  -1.256637061435917 -2.827433388230814 -3.141592653589793  -0.9424777960769379 -2.827433388230814 -3.141592653589793  -0.6283185307179586 -2.827433388230814 -3.141592653589793  -0.3141592653589793 -2.827433388230814 -3.141592653589793  0 -2.827433388230814 -3.141592653589793  0.3141592653589789 -2.827433388230814 -3.141592653589793  0.6283185307179586 -2.827433388230814 -3.141592653589793  0.9424777960769379 -2.827433388230814 -3.141592653589793  1.256637061435917 -2.827433388230814 -3.141592653589793  1.570796326794897 -2.827433388230814 -3.141592653589793  1.884955592153876 -2.827433388230814 -3.141592653589793  2.199114857512855 -2.827433388230814 -3.141592653589793  2.513274122871834 -2.827433388230814 -3.141592653589793  2.827433388230814 -2.827433388230814 -3.141592653589793  3.141592653589793 -2.827433388230814 -3.141592653589793  -3.141592653589793 -2.513274122871834 -3.141592653589793  -2.827433388230814 -2.513274122871834 -3.141592653589793  -2.513274122871834 -2.513274122871834 -3.141592653589793  -2.199114857512855 -2.513274122871834 -3.141592653589793  -1.884955592153876 -2.513274122871834 -3.141592653589793  -1.570796326794897 -2.513274122871834 -3.141592653589793  -1.256637061435917 -2.513274122871834 -3.141592653589793  -0.9424777960769379 -2.513274122871834 -3.141592653589793  -0.6283185307179586 -2.513274122871834 -3.141592653589793  -0.3141592653589793 -2.513274122871834 -3.141592653589793  0 -2.513274122871834 -3.141592653589793  0.3141592653589789 -2.513274122871834 -3.141592653589793  0.6283185307179586 -2.513274122871834 -3.141592653589793  0.9424777960769379 -2.513274122871834 -3.141592653589793  1.256637061435917 -2.513274122871834 -3.141592653589793  1.570796326794897 -2.513274122871834 -3.141592653589793  1.884955592153876 -2.513274122871834 -3.141592653589793  2.199114857512855 -2.513274122871834 -3.141592653589793  2.513274122871834 -2.513274122871834 -3.141592653589793  2.827433388230814 -2.513274122871834 -3.141592653589793  3.141592653589793 -2.513274122871834 -3.141592653589793  -3.141592653589793 -2.199114857512855 -3.141592653589793  -2.827433388230814 -2.199114857512855 -3.141592653589793  -2.513274122871834 -2.199114857512855 -3.141592653589793  -2.199114857512855 -2.199114857512855 -3.141592653589793  -1.884955592153876 -2.199114857512855 -3.141592653589793  -1.570796326794897 -2.199114857512855 -3.141592653589793  -1.256637061435917 -2.199114857512855 -3.141592653589793  -0.9424777960769379 -2.199114857512855 -3.141592653589793  -0.6283185307179586 -2.199114857512855 -3.141592653589793  -0.3141592653589793 -2.199114857512855 -3.141592653589793  0 -2.199114857512855 -3.141592653589793  0.3141592653589789 -2.199114857512855 -3.141592653589793  0.6283185307179586 -2.199114857512855 -3.141592653589793  0.9424777960769379 -2.199114857512855 -3.141592653589793  1.256637061435917 -2.199114857512855 -3.141592653589793  1.570796326794897 -2.199114857512855 -3.141592653589793  1.884955592153876 -2.199114857512855 -3.141592653589793  2.199114857512855 -2.199114857512855 -3.141592653589793  2.513274122871834 -2.199114857512855 -3.141592653589793  2.827433388230814 -2.199114857512855 -3.141592653589793  3.141592653589793 -2.199114857512855 -3.141592653589793  -3.141592653589793 -1.884955592153876 -3.141592653589793  -2.827433388230814 -1.884955592153876 -3.141592653589793  -2.513274122871834 -1.884955592153876 -3.141592653589793  -2.199114857512855 -1.884955592153876 -3.141592653589793  -1.884955592153876 -1.884955592153876 -3.141592653589793  -1.570796326794897 -1.884955592153876 -3.141592653589793  -1.256637061435917 -1.884955592153876 -3.141592653589793  -0.9424777960769379 -1.884955592153876 -3.141592653589793  -0.6283185307179586 -1.884955592153876 -3.141592653589793  -0.3141592653589793 -1.884955592153876 -3.141592653589793  0 -1.884955592153876 -3.141592653589793  0.3141592653589789 -1.884955592153876 -3.141592653589793  0.6283185307179586 -1.884955592153876 -3.141592653589793  0.9424777960769379 -1.884955592153876 -3.141592653589793  1.256637061435917 -1.884955592153876 -3.141592653589793  1.570796326794897 -1.884955592153876 -3.141592653589793  1.884955592153876 -1.884955592153876 -3.141592653589793  2.199114857512855 -1.884955592153876 -3.141592653589793  2.513274122871834 -1.884955592153876 -3.141592653589793  2.827433388230814 -1.884955592153876 -3.141592653589793  3.141592653589793 -1.884955592153876 -3.141592653589793  -3.141592653589793 -1.570796326794897 -3.141592653589793  -2.827433388230814 -1.570796326794897 -3.141592653589793  -2.513274122871834 -1.570796326794897 -3.141592653589793  -2.199114857512855 -1.570796326794897 -3.141592653589793  -1.884955592153876 -1.570796326794897 -3.141592653589793  -1.570796326794897 -1.570796326794897 -3.141592653589793  -1.256637061435917 -1.570796326794897 -3.141592653589793  -0.9424777960769379 -1.570796326794897 -3.141592653589793  -0.6283185307179586 -1.570796326794897 -3.141592653589793  -0.3141592653589793 -1.570796326794897 -3.141592653589793  0 -1.570796326794897 -3.141592653589793  0.3141592653589789 -1.570796326794897 -3.141592653589793  0.6283185307179586 -1.570796326794897 -3.141592653589793  0.9424777960769379 -1.570796326794897 -3.141592653589793  1.256637061435917 -1.570796326794897 -3.141592653589793  1.570796326794897 -1.570796326794897 -3.141592653589793  1.884955592153876 -1.570796326794897 -3.141592653589793  2.199114857512855 -1.570796326794897 -3.141592653589793  2.513274122871834 -1.570796326794897 -3.141592653589793  2.827433388230814 -1.570796326794897 -3.141592653589793  3.141592653589793 -1.570796326794897 -3.141592653589793  -3.141592653589793 -1.256637061435917 -3.141592653589793  -2.827433388230814 -1.256637061435917 -3.141592653589793  -2.513274122871834 -1.256637061435917 -3.141592653589793  -2.199114857512855 -1.256637061435917 -3.141592653589793  -1.884955592153876 -1.256637061435917 -3.141592653589793  -1.570796326794897 -1.256637061435917 -3.141592653589793  -1.256637061435917 -1.256637061435917 -3.141592653589793  -0.9424777960769379 -1.256637061435917 -3.141592653589793  -0.6283185307179586 -1.256637061435917 -3.141592653589793  -0.3141592653589793 -1.256637061435917 -3.141592653589793  0 -1.256637061435917 -3.141592653589793  0.3141592653589789 -1.256637061435917 -3.141592653589793  0.6283185307179586 -1.256637061435917 -3.141592653589793  0.9424777960769379 -1.256637061435917 -3.141592653589793  1.256637061435917 -1.256637061435917 -3.141592653589793  1.570796326794897 -1.256637061435917 -3.141592653589793  1.884955592153876 -1.256637061435917 -3.141592653589793  2.199114857512855 -1.256637061435917 -3.141592653589793  2.513274122871834 -1.256637061435917 -3.141592653589793  2.827433388230814 -1.256637061435917 -3.141592653589793  3.141592653589793 -1.256637061435917 -3.141592653589793  -3.141592653589793 -0.9424777960769379 -3.141592653589793  -2.827433388230814 -0.9424777960769379 -3.141592653589793  -2.513274122871834 -0.9424777960769379 -3.141592653589793  -2.199114857512855 -0.9424777960769379 -3.141592653589793  -1.884955592153876 -0.9424777960769379 -3.141592653589793  -1.570796326794897 -0.9424777960769379 -3.141592653589793  -1.256637061435917 -0.9424777960769379 -3.141592653589793  -0.9424777960769379 -0.9424777960769379 -3.141592653589793  -0.6283185307179586 -0.9424777960769379 -3.141592653589793  -0.3141592653589793 -0.9424777960769379 -3.141592653589793  0 -0.9424777960769379 -3.141592653589793  0.3141592653589789 -0.9424777960769379 -3.141592653589793  0.6283185307179586 -0.9424777960769379 -3.141592653589793  0.9424777960769379 -0.9424777960769379 -3.141592653589793  1.256637061435917 -0.9424777960769379 -3.141592653589793  1.570796326794897 -0.9424777960769379 -3.141592653589793  1.884955592153876 -0.9424777960769379 -3.141592653589793  2.199114857512855 -0.9424777960769379 -3.141592653589793  2.513274122871834 -0.9424777960769379 -3.141592653589793  2.827433388230814 -0.9424777960769379 -3.141592653589793  3.141592653589793 -0.9424777960769379 -3.141592653589793  -3.141592653589793 -0.6283185307179586 -3.141592653589793  -2.827433388230814 -0.6283185307179586 -3.141592653589793  -2.513274122871834 -0.6283185307179586 -3.141592653589793  -2.19
[...]
<PointData  Scalars="f_29820"> 
<DataArray  type="Float64"  Name="f_29820"  format="ascii">4.5909044371633734e-02  1.2874230479003598e-01  4.6142785976122744e-02  -6.5537747534808205e-02  -7.9897368379672096e-02  -2.8895805282786177e-02  9.7960777775448274e-03  4.0017932153022628e-02  3.9087293023840765e-02  -3.3181443052314567e-03  -4.6170033089919425e-02  -4.0863216093741505e-03  3.8037717120792090e-02  3.8737054893850320e-02  8.4816447825394499e-03  -3.0167643146003332e-02  -8.1092951140371072e-02  -6.6507541941657075e-02  4.5518675545197305e-02  1.2834933594570128e-01  4.5909044371633734e-02  3.3251532526558584e-03  -3.4640934861802020e-01  -6.2070458311603793e-01  -9.0521165869492048e-01  -8.7386236650423776e-01  -6.9818102475925703e-01  -5.8935826657872314e-01  -5.1796649463110089e-01  -4.8788609914222864e-01  -4.7329583627648070e-01  -1.2821021553449846e-01  3.4625425671257615e-01  4.6556172097652154e-01  5.3102949892581808e-01  6.0116776526422466e-01  7.3929813874605388e-01  8.8621058427850719e-01  8.6623591744121853e-01  6.3132753933137842e-01  4.7335065835563439e-01  3.3251532526558584e-03  -3.8685372048778761e-02  -4.6587172571721580e-01  -3.6082782246046813e-01  -3.4510738596329499e-01  -2.6906442803872688e-01  -1.5648923970766970e-01  -1.3990553723845350e-01  -1.1056713729246126e-01  -2.8030491551226044e-01  -6.3166461902938698e-01  -4.4633006686030249e-02  6.2044578568690067e-01  3.6008457950006678e-01  1.8506899390378970e-01  1.9596671517661202e-01  2.3041729054690363e-01  3.0876842434874391e-01  3.2546657848697669e-01  2.7917163994554395e-01  4.8781263218912885e-01  -3.8685372048778761e-02  -3.8900323059008680e-02  -5.3139342820561808e-01  -1.8545592808968572e-01  -7.1830811510814260e-02  -7.8295409253516760e-02  -1.3196907161222388e-01  -1.3718436518149554e-01  -5.5633719087732757e-02  -3.2663256589426798e-01  -8.6641144322872976e-01  6.8002092073934359e-02  9.0491458514732759e-01  3.4401172030121968e-01  7.1872076762303394e-02  1.2027886015011341e-01  1.1505547204439306e-01  8.2025032295947639e-02  5.5778483995232546e-02  1.0964862906627160e-01  5.1788249416836141e-01  -3.8900323059008680e-02  -8.0842592775495596e-03  -6.0156524232017128e-01  -1.9644499087911180e-01  -1.2023237546833127e-01  -1.4699124067250482e-01  -1.6423672047444182e-01  -1.2610167540127643e-01  -8.1893672042237103e-02  -3.0975021476006337e-01  -8.8605525841297106e-01  8.2451213405491067e-02  8.7365555027714970e-01  2.6817445018458402e-01  7.8529067881060677e-02  1.4693754937341785e-01  1.1912777659564960e-01  1.2639810106511609e-01  1.3744677363124913e-01  1.3897147224865039e-01  5.8923414178181421e-01  -8.0842592775495596e-03  3.1239153099574347e-02  -7.3961580836029217e-01  -2.3127314475111030e-01  -1.1487983263160392e-01  -1.1911525902175019e-01  -1.0938284554949412e-01  -1.1915328935086013e-01  -1.1489846772032739e-01  -2.3102530401742016e-01  -7.3909160619680947e-01  3.1288959542832069e-02  6.9799247379268703e-01  1.5572537411784171e-01  1.3221519448022920e-01  1.6432694009413987e-01  1.0941371166415426e-01  1.6445220042370098e-01  1.3203734421154809e-01  1.5550480410691628e-01  6.9789439021824884e-01  3.1239153099574347e-02  8.2854590724817267e-02  -8.8605765498681865e-01  -3.1009918125244673e-01  -8.1763959229305766e-02  -1.2646897230044127e-01  -1.6452411464184771e-01  -1.4682037554886715e-01  -1.1991273318758440e-01  -1.9629591345977279e-01  -6.0114937873694030e-01  -7.7052137059844270e-03  5.8919374906299504e-01  1.3907091114597525e-01  1.3746323739261285e-01  1.2636522481850382e-01  1.1924578400241113e-01  1.4702026906078711e-01  7.8442024945125560e-02  2.6806356054617303e-01  8.7355918444375313e-01  8.2854590724817267e-02  6.8195938551501092e-02  -8.6546857304160618e-01  -3.2623960345555680e-01  -5.5424216817720487e-02  -1.3721967884593791e-01  -1.3169076814875977e-01  -7.8034441486624126e-02  -7.1593302985560076e-02  -1.8541131181129220e-01  -5.3105566787164238e-01  -3.8317485510494430e-02  5.1779622150513294e-01  1.0966497039808781e-01  5.5650491271254002e-02  8.2043303700319162e-02  1.1518572471849571e-01  1.2027682517778404e-01  7.1799616718991446e-02  3.4386187895482018e-01  9.0420510323816683e-01  6.8195938551501092e-02  -4.4871810834536480e-02  -6.3078653204864676e-01  -2.7983363872915368e-01  -1.1050542647238566e-01  -1.3985948770666218e-01  -1.5653218307641767e-01  -2.6917706933787261e-01  -3.4481406392361275e-01  -3.6043633095130700e-01  -4.6542132350148252e-01  -3.7845194372493875e-02  4.8792139772783882e-01  2.7975442018884844e-01  3.2622904721893037e-01  3.0924713259952713e-01  2.3067499339513101e-01  1.9604004044623141e-01  1.8512134010576373e-01  3.5998642232996081e-01  6.1948856040931455e-01  -4.4871810834536480e-02  -1.2834914600465958e-01  -4.7296989915376736e-01  -4.8756235317619823e-01  -5.1776110401215225e-01  -5.8924426378801387e-01  -6.9813783704575327e-01  -8.7381066409948016e-01  -9.0461084275791626e-01  -6.1992599088573275e-01  -3.4616832962067018e-01  3.7819377289284388e-03  4.7303528484650603e-01  6.3109455756652799e-01  8.6618177486234349e-01  8.8615844284939793e-01  7.3924862966052896e-01  6.0114582107249304e-01  5.3098022571201109e-01  4.6534999349699913e-01  3.4589728734732644e-01  -1.2834914600465958e-01  -4.6343100025864642e-02  -3.3707378840328369e-03  3.9089326437438260e-02  3.9820039650019741e-02  9.4446899819846230e-03  -2.9424549694295216e-02  -8.0662347059632405e-02  -6.6391266825195694e-02  4.5384419013575601e-02  1.2806711162963869e-01  4.5555211841297856e-02  1.2755743801408267e-01  4.4592753831383322e-02  -6.7220930682317021e-02  -8.1512808779375764e-02  -3.0416234231813038e-02  8.3621524726690283e-03  3.8661768970086344e-02  3.7911814042835563e-02  -4.2781986809229339e-03  -4.6343100025864642e-02  -1.2975650495504759e-01  3.4583817980897075e-01  4.6564657828940159e-01  5.3111380210139392e-01  6.0130443379911303e-01  7.3948184103640491e-01  8.8624663978490070e-01  8.6585951401289152e-01  6.3088333204067204e-01  4.7287398590192070e-01  3.1795857636874266e-03  -3.4672773484735009e-01  -6.2018880445833868e-01  -9.0469695497379654e-01  -8.7400330096029810e-01  -6.9843061372387938e-01  -5.8955291364553308e-01  -5.1819398072315059e-01  -4.8796407751643783e-01  -4.7395532111714006e-01  -1.2975650495504759e-01  -4.7194456861846819e-02  6.2021843760966111e-01  3.6071410433166401e-01  1.8493080246461005e-01  1.9571160758503961e-01  2.3034378062531530e-01  3.0914989566305973e-01  3.2604171606612614e-01  2.7983143021624757e-01  4.8764477067261253e-01  -3.8573785131986053e-02  -4.6571588720383722e-01  -3.5962986736299357e-01  -3.4370955037766937e-01  -2.6816237692064659e-01  -1.5575491054695145e-01  -1.3916785472021861e-01  -1.0993276620295141e-01  -2.7819508345054372e-01  -6.3152624570671367e-01  -4.7194456861846819e-02  6.5439082431789058e-02  9.0508163093954364e-01  3.4496270598941181e-01  7.1753909020245268e-02  1.2022467749143832e-01  1.1518893258949647e-01  8.2122600436341092e-02  5.5665850098170037e-02  1.0999280154589171e-01  5.1752371299598798e-01  -3.8964730045135253e-02  -5.3127488938372147e-01  -1.8494375643581723e-01  -7.1577396074257740e-02  -7.8063967861337957e-02  -1.3171867732479525e-01  -1.3733754357182779e-01  -5.5868261413047418e-02  -3.2432921629167327e-01  -8.6660636706205640e-01  6.5439082431789058e-02  8.0838025581402184e-02  8.7389079025606875e-01  2.6862875625579402e-01  7.8303522872209569e-02  1.4710422330505449e-01  1.1919137587210339e-01  1.2656391829598046e-01  1.3748661446232019e-01  1.3935715562532422e-01  5.8897358667754740e-01  -8.3943553967435799e-03  -6.0151541191734859e-01  -1.9593231673291084e-01  -1.1996510753156261e-01  -1.4669838097300861e-01  -1.6419035499170587e-01  -1.2634030708966923e-01  -8.2042754875295776e-02  -3.0797785527448818e-01  -8.8643885894369767e-01  8.0838025581402184e-02  3.0229806440430051e-02  6.9809474781733094e-01  1.5586477326202230e-01  1.3208859847921134e-01  1.6430440393121687e-01  1.0942062651496061e-01  1.6465371276223065e-01  1.3211884790381642e-01  1.5617726881488272e-01  6.9771581365240443e-01  3.0487221176704889e-02  -7.3955379144512390e-01  -2.3039350738463688e-01  -1.1483367516410053e-01  -1.1904532690849208e-01  -1.0933365392644480e-01  -1.1920287944021460e-01  -1.1494886878658916e-01  -2.2998496041895145e-01  -7.3949806659729367e-01  3.0229806440430051e-02  -8.4310659100569896e-03  5.8917123952993955e-01  1.3922444791333183e-01  1.3743678384893560e-01  1.2633042134583333e-01  1.1938860460425249e-01  1.4717886230209129e-01  7.8417382146190442e-02  2.6925166446839083e-01  8.7335009262013374e-01  8.1349760501718674e-02  -8.8612643549811654e-01  -3.0863326438526961e-01  -8.2029983480986418e-02  -1.2637977522599161e-01  -1.6427630188234563e-01  -1.4683809353004260e-01  -1.2006372589508536e-01  -1.9570195761124970e-01  -6.0139971208942922e-01  -8.4310659100569896e-03  -3.8797583882219405e-02  5.1780497788011470e-01  1.0979399446912767e-01  5.5761901136276000e-02  8.2011606761824840e-02  1.1524889473244043e-01  1.2043593849077436e-01  7.2049815918733828e-02  3.4538435117273020e-01  9.0428651254817294e-01  6.5983436807330903e-02  -8.6586319356541397e-01  -3.2488443662272765e-01  -5.5914204478253987e-02  -1.3732821945621151e-01  -1.3167832737825871e-01  -7.8154831765258559e-02  -7.1618098349999604e-02  -1.8492762551510866e-01  -5.3127740829918468e-01  -3.8797583882219405e-02  -3.8105037818277739e-02  4.8786242463486457e-01  2.7936544019508863e-01  3.2583709537534733e-01  3.0878232219317131e-01  2.3037217387486503e-01  1.9591235456488545e-01  1.8506585637732878e-01  3.6066633259696068e-01  6.1957040552411713e-01  -4.6868787972281091e-02  -6.3116647265946446e-01  -2.7870717679030799e-01  -1.1025484666515797e-01  -1.3957781598108174e-01  -1.5616469461609883e-01  -2.6862036876868362e-01  -3.4424600976911551e-01  -3.6007246842445223e-01  -4.6573032647437107e-01  -3.8105037818277739e-02  3.8337871698252905e-03  4.7343282505496609e-01  6.3147318292086785e-01  8.6651977622920573e-01  8.8623799925506841e-01  7.3912318745835470e-01  6.0096765459458723e-01  5.3086553753536958e-01  4.6536362899914852e-01  3.4559560478192569e-01  -1.2961087794107415e-01  -4.7380314583815525e-01  -4.8793396894282925e-01  -5.1806636182987820e-01  -5.8952174943029501e-01  -6.9837102645127103e-01  -8.7386946360544837e-01  -9.0467252213321681e-01  -6.2020033960155174e-01  -3.4640837257835216e-01  3.8337871698252905e-03  4.5909044371633734e-02  1.2874230479003598e-01  4.6142785976122744e-02  -6.5537747534808205e-02  -7.9897368379672096e-02  -2.8895805282786177e-02  9.7960777775448274e-03  4.0017932153022628e-02  3.9087293023840765e-02  -3.3181443052314567e-03  -4.6170033089919425e-02  -4.0863216093741505e-03  3.8037717120792090e-02  3.8737054893850320e-02  8.4816447825394499e-03  -3.0167643146003332e-02  -8.1092951140371072e-02  -6.6507541941657075e-02  4.5518675545197305e-02  1.2834933594570128e-01  4.5909044371633734e-02  5.0690112390510696e-02  1.2648280676350993e-01  9.8495834146268529e-02  4.6510259223727528e-02  -4.2962693550044513e-02  -9.9086782249033931e-02  -8.7199904994698110e-02  -9.0024979523116430e-02  -1.1081176366087102e-01  -9.8621700565005702e-02  -5.0861381724062911e-02  2.9408192146626704e-02  1.0271656644597879e-01  1.3152092353951997e-01  1.4236451233720387e-01  7.1138644933507522e-02  -7.6514131839498012e-02  -1.7703581450579067e-01  -1.0668009468595133e-01  7.9713683253197859e-02  5.0690112390510696e-02  -3.0080032905844472e-02  -1.8915005649858685e-01  -4.1101981917061781e-01  -7.2043087535793027e-01  -7.6867694640575857e-01  -6.6939485720226899e-01  -5.1494185225518596e-01  -4.6701769492688699e-01  -5.4597355848725193e-01  -4.4406618222040395e-01  -1.2622399681294230e-01  1.8931243704773820e-01  3.1311666950379974e-01  3.6099040504380903e-01  4.2172865275782845e-01  6.0230312711146494e-01  7.6900195771624513e-01  7.1178055876639112e-01  4.7336764607316995e-01  4.0384075368111610e-01  -3.0080032905844472e-02  -1.0330334075162449e-01  -3.1332733337102764e-01  -3.9779222064859299e-01  -5.2575301756290016e-01  -4.1412640451819627e-01  -2.7667465344462888e-01  -2.0950572025924619e-01  -1.7921314774734473e-01  -3.9199782741058786e-01  -5.4645154935419737e-01  -9.7508787415805903e-02  4.1129608461494843e-01  3.9702827044477762e-01  1.9417942791449469e-01  8.7451688712819164e-02  2.0999036370536961e-01  3.4437835885866952e-01  5.0909954571801952e-01  3.1557235896386093e-01  4.4411116716227322e-01  -1.0330334075162449e-01  -1.3191512764362676e-01  -3.6147202237003295e-01  -1.9469591919050722e-01  -2.0628109556004184e-01  -1.9417963553905751e-01  -1.7626939554893251e-01  -1.7298793118375394e-01  -9.3223536205388952e-02  -3.4798008343400877e-01  -8.0880453657162465e-01  -4.4567207611847348e-02  7.2084132303424575e-01  5.2465268734881854e-01  2.0588891070284274e-01  1.5684763482968514e-01  2.2346339567914056e-01  1.5244577168291132e-01  3.7298396546310064e-02  -1.0414526753393520e-02  4.8328072361841257e-01  -1.3191512764362676e-01  -1.4230349599126477e-01  -4.2234272781495369e-01  -8.7913840590616812e-02  -1.5689709028940932e-01  -2.1000196006469152e-01  -2.1508864577649134e-01  -2.2981082468820005e-01  -1.6301776797995943e-01  -2.1762962408718639e-01  -8.8209901642511390e-01  4.5295812438632413e-02  7.6883800157425675e-01  4.1302281567420585e-01  1.9407617960488444e-01  2.1003982336579852e-01  2.1581285206479933e-01  3.1788509913707602e-01  2.4103331875838890e-01  5.6127216745448412e-02  5.1473669632275643e-01  -1.4230349599126477e-01  -7.0493057120455449e-02  -6.0301090807444213e-01  -2.1040030659252659e-01  -2.2310153001112965e-01  -2.1570845622255966e-01  -3.1328759614796503e-01  -4.0467730637340060e-01  -2.2394123748199715e-01  -1.4804665924816468e-01  -7.8497524230653037e-01  1.0148710045422636e-01  6.6921374997385374e-01  2.7592244977728170e-01  1.7635895675820504e-01  2.1532971167237980e-01  3.1336389762919709e-01  4.9500413555254996e-01  3.7586636221837055e-01  1.2199948146440603e-01  6.1646600049753453e-01  -7.0493057120455449e-02  7.7682984415267609e-02  -7.6923540443585958e-01  -3.4553065823966905e-01  -1.5176492569389186e-01  -3.1764390690946265e-01  -4.9518257206269828e-01  -4.0006446003896506e-01  -9.9773888614960018e-02  -1.1625232745845562e-01  -6.8214374676852985e-01  8.9504570167719122e-02  5.1426267686145177e-01  2.0881046876310139e-01  1.7304310306778764e-01  2.2980496880845797e-01  4.0427918249957201e-01  4.0000790724942054e-01  1.2190092396572390e-01  1.9633134594237048e-01  7.8049395541099764e-01  7.7682984415267609e-02  1.7808854863612450e-01  -7.1093287278591022e-01  -5.0996724037372554e-01  -3.6957755987320554e-02  -2.4037808661102422e-01  -3.7550086484309653e-01  -1.2162343874646427e-01  -3.8457574320727009e-02  -1.7230127416052751e-01  -5.9093016536565801e-01  9.2349719884356682e-02  4.6672494646419344e-01  1.7875405151026652e-01  9.3384401760430572e-02  1.6288161447128296e-01  2.2403398294819957e-01  1.0009700057163123e-01  3.8605982166887015e-02  3.4097867708936003e-01  7.8725535278444636e-01  1.7808854863612450e-01  1.0714275922975978e-01  -4.7262310589036072e-01  -3.1589483696264997e-01  1.0040147182857916e-02  -5.5996392567281457e-02  -1.2202298179616604e-01  -1.9687796551609002e-01  -3.4115307253265026e-01  -3.7643551644904966e-01  -4.9848548590758368e-01  1.1270017409396384e-01  5.4611868983725920e-01  3.9171353488269928e-01  3.4806834883131127e-01  2.1753961633668700e-01  1.4792413024592280e-01  1.1608579787616548e-01  1.7223729336271201e-01  3.7664978953686790e-01  5.7064261853467624e-01  1.0714275922975978e-01  -7.9823814319559733e-02  -4.0390614257603097e-01  -4.4427990957325109e-01  -4.8374369254672672e-01  -5.1530297731584107e-01  -6.1699289802562785e-01  -7.8097428772923250e-01  -7.8776547783971684e-01  -5.7092399267006533e-01  -3.5160422494409105e-01  9.9277189205842761e-02  4.4361526239011700e-01  5.4563464330865763e-01  8.0820325987582997e-01  8.8194178157203051e-01  7.8506613880324916e-01  6.8229371419751905e-01  5.9129618583323795e-01  4.9889108535926269e-01  3.5165083547580839e-01  -7.9823814319559733e-02  -5.1370974527782151e-02  2.9776165451852611e-02  1.0343141333237625e-01  1.3248708618917879e-01  1.4327798768223859e-01  7.1831930340880673e-02  -7.6173672392300440e-02  -1.7704817248659430e-01  -1.0683078280011742e-01  7.9655138554299551e-02  5.0194581016279813e-02  1.2559550534126016e-01  9.7338629819744171e-02  4.5177786846757308e-02  -4.4268671006091317e-02  -1.0043920226621081e-01  -8.8585565675060818e-02  -9.1467770690785238e-02  -1.1231922278440741e-01  -9.9891154016351555e-02  -5.1370974527782151e-02  -1.2712747374032091e-01  1.8901071084781429e-01  3.1321614668800757e-01  3.6112653067642086e-01  4.2183301327987294e-01  6.0254137024569965e-01  7.6925362420829335e-01  7.1158481818883534e-01  4.7307097835737905e-01  4.0362895249887204e-01  -3.0714025989549237e-02  -1.8953185477864828e-01  -4.1094547451111868e-01  -7.2041964601828579e-01  -7.6900080835648621e-01  -6.6962765748318698e-01  -5.1486039090338298e-01  -4.6672829367096247e-01  -5.4599992322298385e-01  -4.4470175780402121e-01  -1.2712747374032091e-01  -9.9080107832543313e-02  4.1116340709132126e-01  3.9769792367760243e-01  1.9424912433842514e-01  8.7507607402686260e-02  2.0997714453859237e-01  3.4483380364905936e-01  5.0969663211726723e-01  3.1594691543214420e-01  4.4419131454513217e-01  -1.0382677836023760e-01  -3.1322256364865964e-01  -3.9685226482594393e-01  -5.2451642464941484e-01  -4.1322513250410187e-01  -2.7613361792043700e-01  -2.0921430517556944e-01  -1.7839890251534324e-01  -3.9043556148585434e-01  -5.4639264992014902e-01  -9.9080107832543313e-02  -4.6702208519277845e-02  7.2101318874603892e-01  5.2550485079085529e-01  2.0575922014091935e-01  1.5648875907829027e-01  2.2301077668442784e-01  1.5211675481349771e-01  3.7208541273466261e-02  -1.0064610988104549e-02  4.8356583397826747e-01  -1.3240125044756654e-01  -3.6119482644513851e-01  -1.9411652308365662e-01  -2.0575321288947943e-01  -1.9391132781140105e-01  -1.7638828827689609e-01  -1.7329076250446576e-01  -9.3386896034022226e-02  -3.4617533616831003e-01  -8.0867655785739578e-01  -4.6702208519277845e-02  4.3665796752991148e-02  7.6931331615720910e-01  4.1344911758115793e-01  1.9370937469533309e-01  2.0965838399766409e-01  2.1561981454709939e-01  3.1771173990144530e-01  2.4071699250000919e-01  5.5959538746475676e-02  5.1509287084131516e-01  -1.4293015488464403e-01  -4.2218464781732185e-01  -8.7472246595802647e-02  -1.5628008155742687e-01  -2.0974318790308658e-01  -2.1520868685227248e-01  -2.2982096582458852e-01  -1.6314575518083993e-01  -2.1639689236776194e-01  -8.8199986493804017e-01  4.3665796752991148e-02  1.0036249085799133e-01  6.6959319585235755e-01  2.7589442740885484e-01  1.7618220493532141e-01  2.1536213102053051e-01  3.1328821484260710e-01  4.9528230808289386e-01  3.7564085029296945e-01  1.2209937228872846e-01  6.1667116296495805e-01  -7.1330546464470929e-02  -6.0287581298666904e-01  -2.0998415486961255e-01  -2.2304599349450543e-01  -2.1568479353885159e-01  -3.1304352925259177e-01  -4.0421507997061112e-01  -2.2391722749201431e-01  -1.4754994463409293e-01  -7.8518504302384451e-01  1.0036249085799133e-01  8.8720958202084949e-02  5.1465329829521633e-01  2.0882053773714288e-01  1.7321909685333012e-01  2.3000008695947224e-01  4.0467957271837096e-01  4.0007718007588156e-01  1.2205561582441216e-01  1.9705744063083186e-01  7.8060317949791536e-01  7.6491200799482434e-02  -7.6923811174134915e-01  -3.4451914316141763e-01  -1.5184432287583341e-01  -3.1756482127362518e-01  -4.9469137203770791e-01  -3.9975176140580737e-01  -9.9798578896170415e-02  -1.1600018756540356e-01  -6.8242558070699899e-01  8.8720958202084949e-02  9.1678043006193727e-02  4.6679800966044938e-01  1.7863939036029361e-01  9.3332639712459337e-02  1.6317933691499958e-01  2.2419951406190472e-01  1.0016579676192250e-01  3.8942667437868922e-02  3.4172111988158882e-01  7.8748229428576366e-01  1.7663611023559034e-01  -7.1166998720515962e-01  -5.0858958796447340e-01  -3.7150988618102183e-02  -2.406567294950