<?xml version="1.0"?>
<VTKFile type="UnstructuredGrid"  version="0.1"  >
<UnstructuredGrid>
<Piece  NumberOfPoints="9261" NumberOfCells="48000">
<Points>
<DataArray  type="Float64"  NumberOfComponents="3"  format="ascii">-3.141592653589793 -3.141592653589793 -3.141592653589793  -2.827433388230814 -3.141592653589793 -3.141592653589793  -2.513274122871834 -3.141592653589793 -3.141592653589793  -2.199114857512855 -3.141592653589793 -3.141592653589793  -1.884955592153876 -3.141592653589793 -3.141592653589793  -1.570796326794897 -3.141592653589793 -3.141592653589793  -1.256637061435917 -3.141592653589793 -3.141592653589793  -0.9424777960769379 -3.141592653589793 -3.141592653589793  -0.6283185307179586 -3.141592653589793 -3.141592653589793  -0.3141592653589793 -3.141592653589793 -3.141592653589793  0 -3.141592653589793 -3.141592653589793  0.3141592653589789 -3.141592653589793 -3.141592653589793  0.6283185307179586 -3.141592653589793 -3.141592653589793  0.9424777960769379 -3.141592653589793 -3.141592653589793  1.256637061435917 -3.141592653589793 -3.141592653589793  1.570796326794897 -3.141592653589793 -3.141592653589793  1.884955592153876 -3.141592653589793 -3.141592653589793  2.199114857512855 -3.141592653589793 -3.141592653589793  2.513274122871834 -3.141592653589793 -3.141592653589793  2.827433388230814 -3.141592653589793 -3.141592653589793  3.141592653589793 -3.141592653589793 -3.141592653589793  -3.141592653589793 -2.827433388230814 -3.141592653589793  -2.827433388230814 -2.827433388230814 -3.141592653589793  -2.513274122871834 -2.827433388230814 -3.141592653589793  -2.199114857512855 -2.827433388230814 -3.141592653589793  -1.884955592153876 -2.827433388230814 -3.141592653589793  -1.570796326794897 -2.827433388230814 -3.141592653589793  -1.256637061435917 -2.827433388230814 -3.141592653589793  -0.9424777960769379 -2.827433388230814 -3.141592653589793  -0.6283185307179586 -2.827433388230814 -3.141592653589793  -0.3141592653589793 -2.827433388230814 -3.141592653589793  0 -2.827433388230814 -3.141592653589793  0.3141592653589789 -2.827433388230814 -3.141592653589793  0.6283185307179586 -2.827433388230814 -3.141592653589793  0.9424777960769379 -2.827433388230814 -3.141592653589793  1.256637061435917 -2.827433388230814 -3.141592653589793  1.570796326794897 -2.827433388230814 -3.141592653589793  1.884955592153876 -2.827433388230814 -3.141592653589793  2.199114857512855 -2.827433388230814 -3.141592653589793  2.513274122871834 -2.827433388230814 -3.141592653589793  2.827433388230814 -2.827433388230814 -3.141592653589793  3.141592653589793 -2.827433388230814 -3.141592653589793  -3.141592653589793 -2.513274122871834 -3.141592653589793  -2.827433388230814 -2.513274122871834 -3.141592653589793  -2.513274122871834 -2.513274122871834 -3.141592653589793  -2.199114857512855 -2.513274122871834 -3.141592653589793  -1.884955592153876 -2.513274122871834 -3.141592653589793  -1.570796326794897 -2.513274122871834 -3.141592653589793  -1.256637061435917 -2.513274122871834 -3.141592653589793  -0.9424777960769379 -2.513274122871834 -3.141592653589793  -0.6283185307179586 -2.513274122871834 -3.141592653589793  -0.3141592653589793 -2.513274122871834 -3.141592653589793  0 -2.513274122871834 -3.141592653589793  0.3141592653589789 -2.513274122871834 -3.141592653589793  0.6283185307179586 -2.513274122871834 -3.141592653589793  0.9424777960769379 -2.513274122871834 -3.141592653589793  1.256637061435917 -2.513274122871834 -3.141592653589793  1.570796326794897 -2.513274122871834 -3.141592653589793  1.884955592153876 -2.513274122871834 -3.141592653589793  2.199114857512855 -2.513274122871834 -3.141592653589793  2.513274122871834 -2.513274122871834 -3.141592653589793  2.827433388230814 -2.513274122871834 -3.141592653589793  3.141592653589793 -2.513274122871834 -3.141592653589793  -3.141592653589793 -2.199114857512855 -3.141592653589793  -2.827433388230814 -2.199114857512855 -3.141592653589793  -2.513274122871834 -2.199114857512855 -3.141592653589793  -2.199114857512855 -2.199114857512855 -3.141592653589793  -1.884955592153876 -2.199114857512855 -3.141592653589793  -1.570796326794897 -2.199114857512855 -3.141592653589793  -1.256637061435917 -2.199114857512855 -3.141592653589793  -0.9424777960769379 -2.199114857512855 -3.141592653589793  -0.6283185307179586 -2.199114857512855 -3.141592653589793  -0.3141592653589793 -2.199114857512855 -3.141592653589793  0 -2.199114857512855 -3.141592653589793  0.3141592653589789 -2.199114857512855 -3.141592653589793  0.6283185307179586 -2.199114857512855 -3.141592653589793  0.9424777960769379 -2.199114857512855 -3.141592653589793  1.256637061435917 -2.199114857512855 -3.141592653589793  1.570796326794897 -2.199114857512855 -3.141592653589793  1.884955592153876 -2.199114857512855 -3.141592653589793  2.199114857512855 -2.199114857512855 -3.141592653589793  2.513274122871834 -2.199114857512855 -3.141592653589793  2.827433388230814 -2.199114857512855 -3.141592653589793  3.141592653589793 -2.199114857512855 -3.141592653589793  -3.141592653589793 -1.884955592153876 -3.141592653589793  -2.827433388230814 -1.884955592153876 -3.141592653589793  -2.513274122871834 -1.884955592153876 -3.141592653589793  -2.199114857512855 -1.884955592153876 -3.141592653589793  -1.884955592153876 -1.884955592153876 -3.141592653589793  -1.570796326794897 -1.884955592153876 -3.141592653589793  -1.256637061435917 -1.884955592153876 -3.141592653589793  -0.9424777960769379 -1.884955592153876 -3.141592653589793  -0.6283185307179586 -1.884955592153876 -3.141592653589793  -0.3141592653589793 -1.884955592153876 -3.141592653589793  0 -1.884955592153876 -3.141592653589793  0.3141592653589789 -1.884955592153876 -3.141592653589793  0.6283185307179586 -1.884955592153876 -3.141592653589793  0.9424777960769379 -1.884955592153876 -3.141592653589793  1.256637061435917 -1.884955592153876 -3.141592653589793  1.570796326794897 -1.884955592153876 -3.141592653589793  1.884955592153876 -1.884955592153876 -3.141592653589793  2.199114857512855 -1.884955592153876 -3.141592653589793  2.513274122871834 -1.884955592153876 -3.141592653589793  2.827433388230814 -1.884955592153876 -3.141592653589793  3.141592653589793 -1.884955592153876 -3.141592653589793  -3.141592653589793 -1.570796326794897 -3.141592653589793  -2.827433388230814 -1.570796326794897 -3.141592653589793  -2.513274122871834 -1.570796326794897 -3.141592653589793  -2.199114857512855 -1.570796326794897 -3.141592653589793  -1.884955592153876 -1.570796326794897 -3.141592653589793  -1.570796326794897 -1.570796326794897 -3.141592653589793  -1.256637061435917 -1.570796326794897 -3.141592653589793  -0.9424777960769379 -1.570796326794897 -3.141592653589793  -0.6283185307179586 -1.570796326794897 -3.141592653589793  -0.3141592653589793 -1.570796326794897 -3.141592653589793  0 -1.570796326794897 -3.141592653589793  0.3141592653589789 -1.570796326794897 -3.141592653589793  0.6283185307179586 -1.570796326794897 -3.141592653589793  0.9424777960769379 -1.570796326794897 -3.141592653589793  1.256637061435917 -1.570796326794897 -3.141592653589793  1.570796326794897 -1.570796326794897 -3.141592653589793  1.884955592153876 -1.570796326794897 -3.141592653589793  2.199114857512855 -1.570796326794897 -3.141592653589793  2.513274122871834 -1.570796326794897 -3.141592653589793  2.827433388230814 -1.570796326794897 -3.141592653589793  3.141592653589793 -1.570796326794897 -3.141592653589793  -3.141592653589793 -1.256637061435917 -3.141592653589793  -2.827433388230814 -1.256637061435917 -3.141592653589793  -2.513274122871834 -1.256637061435917 -3.141592653589793  -2.199114857512855 -1.256637061435917 -3.141592653589793  -1.884955592153876 -1.256637061435917 -3.141592653589793  -1.570796326794897 -1.256637061435917 -3.141592653589793  -1.256637061435917 -1.256637061435917 -3.141592653589793  -0.9424777960769379 -1.256637061435917 -3.141592653589793  -0.6283185307179586 -1.256637061435917 -3.141592653589793  -0.3141592653589793 -1.256637061435917 -3.141592653589793  0 -1.256637061435917 -3.141592653589793  0.3141592653589789 -1.256637061435917 -3.141592653589793  0.6283185307179586 -1.256637061435917 -3.141592653589793  0.9424777960769379 -1.256637061435917 -3.141592653589793  1.256637061435917 -1.256637061435917 -3.141592653589793  1.570796326794897 -1.256637061435917 -3.141592653589793  1.884955592153876 -1.256637061435917 -3.141592653589793  2.199114857512855 -1.256637061435917 -3.141592653589793  2.513274122871834 -1.256637061435917 -3.141592653589793  2.827433388230814 -1.256637061435917 -3.141592653589793  3.141592653589793 -1.256637061435917 -3.141592653589793  -3.141592653589793 -0.9424777960769379 -3.141592653589793  -2.827433388230814 -0.9424777960769379 -3.141592653589793  -2.513274122871834 -0.9424777960769379 -3.141592653589793  -2.199114857512855 -0.9424777960769379 -3.141592653589793  -1.884955592153876 -0.9424777960769379 -3.141592653589793  -1.570796326794897 -0.9424777960769379 -3.141592653589793  -1.256637061435917 -0.9424777960769379 -3.141592653589793  -0.9424777960769379 -0.9424777960769379 -3.141592653589793  -0.6283185307179586 -0.9424777960769379 -3.141592653589793  -0.3141592653589793 -0.9424777960769379 -3.141592653589793  0 -0.9424777960769379 -3.141592653589793  0.3141592653589789 -0.9424777960769379 -3.141592653589793  0.6283185307179586 -0.9424777960769379 -3.141592653589793  0.9424777960769379 -0.9424777960769379 -3.141592653589793  1.256637061435917 -0.9424777960769379 -3.141592653589793  1.570796326794897 -0.9424777960769379 -3.141592653589793  1.884955592153876 -0.9424777960769379 -3.141592653589793  2.199114857512855 -0.9424777960769379 -3.141592653589793  2.513274122871834 -0.9424777960769379 -3.141592653589793  2.827433388230814 -0.9424777960769379 -3.141592653589793  3.141592653589793 -0.9424777960769379 -3.141592653589793  -3.141592653589793 -0.6283185307179586 -3.141592653589793  -2.827433388230814 -0.6283185307179586 -3.141592653589793  -2.513274122871834 -0.6283185307179586 -3.141592653589793  -2.19
[...]
<PointData  Scalars="f_30056"> 
<DataArray  type="Float64"  Name="f_30056"  format="ascii">4.7106100634979414e-02  1.2748588357583404e-01  3.8516903069492923e-02  -6.9114514656641715e-02  -7.4111067625285770e-02  -2.3268750990675918e-02  1.3926069647267206e-02  4.2889253978526790e-02  3.9731524428253659e-02  -3.8388728379673510e-03  -4.7362838011884408e-02  -4.5851304100395065e-03  3.8703988992135611e-02  4.1627535039400060e-02  1.2622394477873354e-02  -2.4533264377937902e-02  -7.5309552895414120e-02  -7.0102524238721042e-02  3.7886763617567626e-02  1.2708600825280392e-01  4.7106100634979414e-02  3.8321725668652943e-03  -3.3634350020708231e-01  -6.2337622983341567e-01  -8.9810181091442276e-01  -8.5398546161934963e-01  -6.7950219741528317e-01  -5.7353078324832263e-01  -5.0435971723431372e-01  -4.7739851858129334e-01  -4.6412887317556573e-01  -1.2694779941122861e-01  3.3619732503594807e-01  4.5306926276401299e-01  5.1572808616142740e-01  5.8192520241363110e-01  7.1540480729877476e-01  8.6555710298442945e-01  8.5873363922045287e-01  6.3338388448420979e-01  4.6416954089929124e-01  3.8321725668652943e-03  -3.9362593496192637e-02  -4.5337922657852181e-01  -3.7401552720080133e-01  -3.6581409115483787e-01  -2.7988935030017353e-01  -1.6307183857455532e-01  -1.4620772206854379e-01  -1.1543984494878252e-01  -3.0235122164973499e-01  -6.3368287547853119e-01  -3.6976480327366307e-02  6.2314618539617506e-01  3.7323192312498077e-01  1.9003026721907718e-01  2.0004391252678666e-01  2.3854858831309977e-01  3.2345732150169754e-01  3.5185823736058686e-01  3.0121174026869074e-01  4.7732725859491970e-01  -3.9362593496192637e-02  -4.1816576904280145e-02  -5.1608096093908118e-01  -1.9043161633272490e-01  -7.4202096848870969e-02  -7.8606281079571433e-02  -1.3474016037716183e-01  -1.3694595822667355e-01  -5.3968675940387484e-02  -3.5305729473344855e-01  -8.5885735967077903e-01  7.1561498602157297e-02  8.9786351133322595e-01  3.6468912441229528e-01  7.4233531274093018e-02  1.2024392744007649e-01  1.1693598558879900e-01  8.2522237760900119e-02  5.4088487779109372e-02  1.1448825675544837e-01  5.0429348717699207e-01  -4.1816576904280145e-02  -1.2262705132511452e-02  -5.8230760245103863e-01  -2.0053066006073561e-01  -1.2019789205426326e-01  -1.4977366105738804e-01  -1.6757910339052648e-01  -1.2742457203993438e-01  -8.2408555201550271e-02  -3.2443259308035821e-01  -8.6534316149797763e-01  7.6615417437831290e-02  8.5384434787947927e-01  2.7898871642682921e-01  7.8841241862791331e-02  1.4972166587419394e-01  1.2242781669671149e-01  1.2771580888426437e-01  1.3721903743537400e-01  1.4525943712867259e-01  5.7345086342024332e-01  -1.2262705132511452e-02  2.5548775325070251e-02  -7.1570766974934330e-01  -2.3941522792426401e-01  -1.1676930966047404e-01  -1.2242127858891977e-01  -1.1144782707418052e-01  -1.2246436020613559e-01  -1.1678171714393511e-01  -2.3914439980033592e-01  -7.1518264444341395e-01  2.5606395135987434e-02  6.7936637398758926e-01  1.6228675421883004e-01  1.3499942712839783e-01  1.6767239940482803e-01  1.1147539748777910e-01  1.6780370185310445e-01  1.3481703461344322e-01  1.6206149689497970e-01  6.7926625201224100e-01  2.5548775325070251e-02  7.7024303470104319e-02  -8.6539594687466037e-01  -3.2483935269409575e-01  -8.2269038093272739e-02  -1.2778227866350422e-01  -1.6787339578177396e-01  -1.4959040103753093e-01  -1.1986445116812706e-01  -2.0036115082545458e-01  -5.8189878554668084e-01  -1.1890236785725379e-02  5.7340663258411029e-01  1.4534122221696377e-01  1.3722224777596825e-01  1.2768317321585412e-01  1.2255512304714618e-01  1.4979986825816563e-01  7.8747509918079203e-02  2.7887180461522476e-01  8.5376960989032025e-01  7.7024303470104319e-02  7.1809371113492296e-02  -8.5792406489928563e-01  -3.5268648467467734e-01  -5.3747045744556680e-02  -1.3698428875826246e-01  -1.3446534252421607e-01  -7.8346895394169280e-02  -7.3973000383601703e-02  -1.9037000815792118e-01  -5.1573691490464602e-01  -4.1234063825715338e-02  5.0422798743238895e-01  1.1452310219933909e-01  5.3978998307017897e-02  8.2553830625125044e-02  1.1707587952219212e-01  1.2023620904866178e-01  7.4161834103274663e-02  3.6451680781530832e-01  8.9718671236458092e-01  7.1809371113492296e-02  -3.7199479249900538e-02  -6.3278811183459949e-01  -3.0183842872972938e-01  -1.1536081994640171e-01  -1.4615906983052626e-01  -1.6311011852365986e-01  -2.8001988987946919e-01  -3.6550891050423501e-01  -3.7356183499831674e-01  -4.5292020496408614e-01  -3.8525809490209097e-02  4.7745996799027024e-01  3.0178405656843071e-01  3.5262747312071652e-01  3.2392808965881709e-01  2.3879879769464782e-01  2.0010492722774262e-01  1.9007025396438240e-01  3.7309031087521216e-01  6.2215594331038371e-01  -3.7199479249900538e-02  -1.2708759140226750e-01  -4.6378153941480499e-01  -4.7705406345722795e-01  -5.0414453000971782e-01  -5.7341365409365086e-01  -6.7945497286556178e-01  -8.5394826110091770e-01  -8.9752999372173481e-01  -6.2258803839290366e-01  -3.3610878393178983e-01  4.2778524097967828e-03  4.6386364927473478e-01  6.3311010009979951e-01  8.5864965600365462e-01  8.6548082366316093e-01  7.1534943795354378e-01  5.8189963943384893e-01  5.1566470535013265e-01  4.5284145141899462e-01  3.3581600095477571e-01  -1.2708759140226750e-01  -4.7527009063850913e-02  -3.9018758749305785e-03  3.9722715195978198e-02  4.2682719094484699e-02  1.3566772060682289e-02  -2.3799727257554793e-02  -7.4882630149363347e-02  -6.9996655119964224e-02  3.7743270265941882e-02  1.2680679687545079e-01  4.6748823742996624e-02  1.2630358086127624e-01  3.6964665418411480e-02  -7.0789648478617712e-02  -7.5707525883781407e-02  -2.4764379052979620e-02  1.2517397397681058e-02  4.1564401304603482e-02  3.8591576799263193e-02  -4.7569187621600466e-03  -4.7527009063850913e-02  -1.2850118756181772e-01  3.3576392330231603e-01  4.5316611620637010e-01  5.1582512044169893e-01  5.8206909428901366e-01  7.1559494740417418e-01  8.6560926906817559e-01  8.5835008205043128e-01  6.3290736057400232e-01  4.6370221854433635e-01  3.6863278487140353e-03  -3.3666834045446520e-01  -6.2288210326306948e-01  -8.9766311472094473e-01  -8.5419481336688452e-01  -6.7978418149503061e-01  -5.7375501867681966e-01  -5.0460737093938468e-01  -4.7748618812920990e-01  -4.6479868843869254e-01  -1.2850118756181772e-01  -3.9547590835745557e-02  6.2288715764602864e-01  3.7388600391555121e-01  1.8991253969632679e-01  1.9978843351764505e-01  2.3846583566554994e-01  3.2384638315797309e-01  3.5245178911638875e-01  3.0185381793584237e-01  4.7716925164508134e-01  -3.9249369886358930e-02  -4.5322226777863978e-01  -3.7275919394180429e-01  -3.6437978696097140e-01  -2.7899099641125963e-01  -1.6232169233475149e-01  -1.4546087537724195e-01  -1.1475263201672020e-01  -3.0017760000452448e-01  -6.3364994003411268e-01  -3.9547590835745557e-02  6.9074503291132849e-02  8.9799261851073786e-01  3.6564640484749983e-01  7.4125504706935200e-02  1.2017758694298167e-01  1.1706930305293069e-01  8.2627444356114743e-02  5.3990168050069301e-02  1.1485415461284740e-01  5.0393938554663387e-01  -4.1875470214966994e-02  -5.1596323615720074e-01  -1.8988656951378752e-01  -7.3926666793263235e-02  -7.8363111399124219e-02  -1.3449641624639624e-01  -1.3711368735495794e-01  -5.4167282680603890e-02  -3.5067525943296607e-01  -8.5916576421586222e-01  6.9074503291132849e-02  7.5065415703794242e-02  8.5403960811620672e-01  2.7943364615965788e-01  7.8618533742478985e-02  1.4988661338107248e-01  1.2249579632746729e-01  1.2788369636494992e-01  1.3725428267303882e-01  1.4564435734833520e-01  5.7317461147904158e-01  -1.2562930499610754e-02  -5.8226596073030368e-01  -2.0000825906579728e-01  -1.1992051303447634e-01  -1.4947228305949564e-01  -1.6753133316913940e-01  -1.2765978057236960e-01  -8.2534544350493524e-02  -3.2265565714961603e-01  -8.6581142040009429e-01  7.5065415703794242e-02  2.4582313966061430e-02  6.7944056342051151e-01  1.6243236472637163e-01  1.3486811543008267e-01  1.6764176539207007e-01  1.1148233212259290e-01  1.6800575759633682e-01  1.3490194530505054e-01  1.6273617909984628e-01  6.7906525584581101e-01  2.4828057780415448e-02  -7.1566655737272022e-01  -2.3852495246568714e-01  -1.1670972728121795e-01  -1.2234706175941237e-01  -1.1139586232259463e-01  -1.2251190478044786e-01  -1.1682795049154809e-01  -2.3811803353796823e-01  -7.1561529157048742e-01  2.4582313966061430e-02  -1.2592522860444339e-02  5.7337263981266395e-01  1.4550766826575304e-01  1.3720059521757214e-01  1.2765418787181557e-01  1.2270319114136449e-01  1.4995753259944949e-01  7.8738709389710129e-02  2.8006110397550693e-01  8.5349799102877866e-01  7.5570272095877716e-02  -8.6550463663444577e-01  -3.2333876263681632e-01  -8.2523958126428668e-02  -1.2770324411528061e-01  -1.6762839459838336e-01  -1.4961263804932146e-01  -1.2001782438848449e-01  -1.9977796548198851e-01  -5.8215733665635794e-01  -1.2592522860444339e-02  -4.1695701302333688e-02  5.0422294413665170e-01  1.1464884622286431e-01  5.4089337889904290e-02  8.2522455035248632e-02  1.1714144751457499e-01  1.2039159243184164e-01  7.4432724545105175e-02  3.6606423311788705e-01  8.9717604494246184e-01  6.9640611814723821e-02  -8.5838695596575831e-01  -3.5125976478583915e-01  -5.4218465605223268e-02  -1.3710912112762810e-01  -1.3444750215424112e-01  -7.8453705359877848e-02  -7.3978009612183135e-02  -1.8988488902155712e-01  -5.1596779174405061e-01  -4.1695701302333688e-02  -3.8766466985243740e-02  4.7738945244160619e-01  3.0139558033830383e-01  3.5221745537044291e-01  3.2344800568022869e-01  2.3849235392845017e-01  1.9996827630124187e-01  1.9003396263050143e-01  3.7382062703160418e-01  6.2221828441490812e-01  -3.9197432475024462e-02  -6.3325268895216780e-01  -3.0069496262935613e-01  -1.1508399478143885e-01  -1.4587861474284378e-01  -1.6274000707313968e-01  -2.7945847637890603e-01  -3.6493222745036369e-01  -3.7322059871039021e-01  -4.5323594413911444e-01  -3.8766466985243740e-02  4.3413348214685161e-03  4.6426579656298317e-01  6.3353549281934274e-01  8.5902636258677578e-01  8.6558148458282169e-01  7.1523780452368468e-01  5.8173683509095719e-01  5.1557440232510388e-01  4.5288468959051231e-01  3.3552389955841266e-01  -1.2835212734163057e-01  -4.6464778026066506e-01  -4.7745676238405033e-01  -5.0447472079785594e-01  -5.7371470893214127e-01  -6.7971508895974520e-01  -8.5403536622846787e-01  -8.9760282589736717e-01  -6.2287375286028046e-01  -3.3634228484186107e-01  4.3413348214685161e-03  4.7106100634979414e-02  1.2748588357583404e-01  3.8516903069492923e-02  -6.9114514656641715e-02  -7.4111067625285770e-02  -2.3268750990675918e-02  1.3926069647267206e-02  4.2889253978526790e-02  3.9731524428253659e-02  -3.8388728379673510e-03  -4.7362838011884408e-02  -4.5851304100395065e-03  3.8703988992135611e-02  4.1627535039400060e-02  1.2622394477873354e-02  -2.4533264377937902e-02  -7.5309552895414120e-02  -7.0102524238721042e-02  3.7886763617567626e-02  1.2708600825280392e-01  4.7106100634979414e-02  5.3514473380543194e-02  1.2730853276707219e-01  9.5672555005362481e-02  4.0515288862089854e-02  -4.4202807858773861e-02  -9.5229779727053585e-02  -8.1526628804013887e-02  -8.7001501279469193e-02  -1.0935188729306206e-01  -9.9924171694369304e-02  -5.3677343138532958e-02  2.5852088005835140e-02  9.8774916048376085e-02  1.2789845942253258e-01  1.4282296777212586e-01  7.9394453170638063e-02  -6.3560357981340299e-02  -1.7103681342901786e-01  -1.1551038006534158e-01  7.3517891476734223e-02  5.3514473380543194e-02  -2.6500944586295132e-02  -1.8267390912863807e-01  -4.1080489673597753e-01  -7.0709754978715433e-01  -7.4905126387567800e-01  -6.5206610075188098e-01  -5.0174214426592745e-01  -4.6392545478898639e-01  -5.4157987716578382e-01  -4.3866899023913664e-01  -1.2703978535824315e-01  1.8285105438384461e-01  3.0671368403034838e-01  3.5356523802291301e-01  4.0705981079129055e-01  5.8006007374953750e-01  7.4874480144335720e-01  7.0393768023275971e-01  4.6802095595358684e-01  3.9402656630435640e-01  -2.6500944586295132e-02  -9.9342828423462037e-02  -3.0691394043728010e-01  -4.0967174425424502e-01  -5.3869221628251440e-01  -4.2289119943330683e-01  -2.8161104238273033e-01  -2.1119183180378942e-01  -1.8959894337861560e-01  -4.0660810139592102e-01  -5.4807550603912747e-01  -9.4672565603427114e-02  4.1110729928209649e-01  4.0890887070799881e-01  2.1226581673118314e-01  9.4016721976631148e-02  2.1048318919893974e-01  3.4916547256601077e-01  5.2994175682287559e-01  3.4397283294078057e-01  4.3594636592692304e-01  -9.9342828423462037e-02  -1.2829852721547688e-01  -3.5405020656022756e-01  -2.1280597162355039e-01  -2.1857119285047358e-01  -1.9405607029348251e-01  -1.7204556139204136e-01  -1.7010104838706858e-01  -9.4179213889263189e-02  -3.6260553777578108e-01  -8.0282945157419394e-01  -3.8584885996074417e-02  7.0752500469156843e-01  5.3759476323115751e-01  2.1815566691917049e-01  1.5900342886220722e-01  2.1763936642191214e-01  1.5627371830205306e-01  4.5215041062846857e-02  4.5689511656504785e-03  4.7162832226706342e-01  -1.2829852721547688e-01  -1.4279548876762480e-01  -4.0766664696175114e-01  -9.4489463907206153e-02  -1.5905607641983641e-01  -2.0729136730970646e-01  -2.1362542203666890e-01  -2.3086087065882260e-01  -1.6465559858122419e-01  -2.2951199171485229e-01  -8.6362981284488627e-01  4.6498368214393987e-02  7.4924094651409190e-01  4.2179691151689175e-01  1.9394249711160258e-01  2.0732494873776466e-01  2.1134506110252879e-01  3.1596847390123955e-01  2.3676993669237983e-01  5.6099452431562613e-02  4.9916755610334473e-01  -1.4279548876762480e-01  -7.8797007563968874e-02  -5.8075046963726218e-01  -2.1090081881210429e-01  -2.1729316592158923e-01  -2.1124927101155247e-01  -3.0855660067844509e-01  -4.0302331648825779e-01  -2.2140184955948178e-01  -1.5617281480287140e-01  -7.6303619938114464e-01  9.7590355868403963e-02  6.5191016588507955e-01  2.8084753911692700e-01  1.7212739013071546e-01  2.1386642305736511e-01  3.0863991034000932e-01  4.8894187061568567e-01  3.7944043485136630e-01  1.2939148161122704e-01  5.9750444097629152e-01  -7.8797007563968874e-02  6.4691689925534188e-02  -7.4900283204058393e-01  -3.5032217228441759e-01  -1.5560009597573579e-01  -3.1572784933895487e-01  -4.8912504413228486e-01  -4.0240723882587182e-01  -9.7289637669905019e-02  -1.2247558143194985e-01  -6.6554520794990391e-01  8.3813683235499398e-02  5.0109533204072720e-01  2.1048332940998693e-01  1.7015090889205672e-01  2.3085803195185198e-01  4.0262688043792205e-01  4.0234491387304205e-01  1.3216928000063488e-01  2.0127768788204312e-01  7.6285818741636524e-01  6.4691689925534188e-02  1.7208545516199339e-01  -7.0309074398705385e-01  -5.3082851565544942e-01  -4.4907182098422385e-02  -2.3609353976266156e-01  -3.7906984076686673e-01  -1.3188898203561664e-01  -4.3888030238872680e-02  -1.8185849437605245e-01  -5.7829436052248018e-01  8.9307580913747062e-02  4.6368079728154571e-01  1.8913935017663425e-01  9.4347563484073860e-02  1.6453040641545316e-01  2.2150364279795234e-01  9.7596987502045179e-02  4.4025383028361988e-02  3.5176736089156818e-01  7.8161574324785188e-01  1.7208545516199339e-01  1.1598931137101021e-01  -4.6722388863984970e-01  -3.4426948976194455e-01  -4.9751112037304587e-03  -5.5993171677662629e-02  -1.2940391830879081e-01  -2.0182904507313068e-01  -3.5195453254222075e-01  -3.8431370788125269e-01  -4.8840034416050854e-01  1.1120295602070487e-01  5.4174168417006929e-01  4.0628496813294407e-01  3.6266927798297943e-01  2.2941575884363005e-01  1.5604532849815955e-01  1.2229198062891782e-01  1.8180393349734447e-01  3.8454038806001073e-01  5.7129352718944237e-01  1.1598931137101021e-01  -7.3614313664688638e-02  -3.9407644132444158e-01  -4.3609739693220401e-01  -4.7206324253838283e-01  -4.9971618894559133e-01  -5.9800299100671916e-01  -7.6330095935149733e-01  -7.8209782724699539e-01  -5.7158310355318331e-01  -3.4582922482681794e-01  1.0055150127890025e-01  4.3820695065082332e-01  5.4723878843124862e-01  8.0224463175306149e-01  8.6351422741649209e-01  7.6314488939407632e-01  6.6571206066519806e-01  5.7869026784950583e-01  4.8881932162994579e-01  3.4587032298609760e-01  -7.3614313664688638e-02  -5.4189251119887948e-02  2.6181696382895941e-02  9.9441614193155753e-02  1.2882803178203159e-01  1.4371563562118839e-01  8.0080682970523176e-02  -6.3220290635948723e-02  -1.7106208497781150e-01  -1.1567841714688631e-01  7.3466433326476316e-02  5.3018439118596807e-02  1.2642104102435880e-01  9.4519856114592030e-02  3.9204048198601314e-02  -4.5488949388483496e-02  -9.6575005948850573e-02  -8.2900828126680315e-02  -8.8425242156294340e-02  -1.1083282000659443e-01  -1.0116329037675077e-01  -5.4189251119887948e-02  -1.2795046297721460e-01  1.8254353857466990e-01  3.0682409207970862e-01  3.5371627825440449e-01  4.0716898621160635e-01  5.8029483003089632e-01  7.4900949730158273e-01  7.0375107063560849e-01  4.6770799005529345e-01  3.9382129141097966e-01  -2.7139368418161169e-02  -1.8305847252922211e-01  -4.1074360545160304e-01  -7.0711742562735402e-01  -7.4940221686125641e-01  -6.5231915624855596e-01  -5.0166562779569879e-01  -4.6363812835816232e-01  -5.4163258123629043e-01  -4.3931369381725133e-01  -1.2795046297721460e-01  -9.6249442595795362e-02  4.1096313341915425e-01  4.0959819206503723e-01  2.1234198341597593e-01  9.4060267318571422e-02  2.1047599109095200e-01  3.4961699367378868e-01  5.3055969474024445e-01  3.4432641856513563e-01  4.3601197593821073e-01  -9.9885221068151855e-02  -3.0681726504193368e-01  -4.0871853602652569e-01  -5.3745094628920043e-01  -4.2200780185852127e-01  -2.8107006350454494e-01  -2.1089227299982649e-01  -1.8872974637658549e-01  -4.0502173377023726e-01  -5.4806226674671144e-01  -9.6249442595795362e-02  -4.0672057124994720e-02  7.0769564718641931e-01  5.3845693403562034e-01  2.1803261303011756e-01  1.5862603714117782e-01  2.1718764021606526e-01  1.5594073427401714e-01  4.5135891117879405e-02  4.9372451089279732e-03  4.7189664786790803e-01  -1.2878772705577418e-01  -3.5375331438418828e-01  -2.1219655786780253e-01  -2.1802899654700106e-01  -1.9378977074587994e-01  -1.7214915927119190e-01  -1.7040442218059265e-01  -9.4307180640261362e-02  -3.6075746679471010e-01  -8.0277387437445336e-01  -4.0672057124994720e-02  4.4926087124391993e-02  7.4969021539828518e-01  4.2221211456948016e-01  1.9357446233821296e-01  2.0694303302475675e-01  2.1115859703288431e-01  3.1580636653115840e-01  2.3645245887601557e-01  5.5953654933018813e-02  4.9952297421055158e-01  -1.4342163983076286e-01  -4.0748666908074593e-01  -9.4011276580326791e-02  -1.5843062852274170e-01  -2.0703394390238905e-01  -2.1374521214255940e-01  -2.3087401171377453e-01  -1.6477183330396863e-01  -2.2827956892586707e-01  -8.6361568901686503e-01  4.4926087124391993e-02  9.6505190996631268e-02  6.5226966584387469e-01  2.8082262512446243e-01  1.7196178935003933e-01  2.1391176744850152e-01  3.0856695718593091e-01  4.8923044269445742e-01  3.7921443627827878e-01  1.2946965540502078e-01  5.9769770202379280e-01  -7.9631463173989600e-02  -5.8063234371100425e-01  -2.1049060171821213e-01  -2.1722612125537608e-01  -2.1121742357901449e-01  -3.0832150355433430e-01  -4.0256520125915762e-01  -2.2138017018100486e-01  -1.5567998365407831e-01  -7.6328414395148259e-01  9.6505190996631268e-02  8.3046713282533796e-02  5.0146816341344269e-01  2.1049815566486832e-01  1.7033468558792952e-01  2.3105691372651835e-01  4.0302320317546353e-01  4.0242249858413998e-01  1.3232794708983256e-01  2.0199137811052639e-01  7.6293499749475113e-01  6.3520318133327633e-02  -7.4900664752315826e-01  -3.4931172296140922e-01  -1.5567000099063671e-01  -3.1566082204759360e-01  -4.8864269649067310e-01  -4.0208909998001113e-01  -9.7303179407771334e-02  -1.2221449781561311e-01  -6.6584225351601301e-01  8.3046713282533796e-02  8.8642646407955578e-02  4.6372562725879357e-01  1.8901169070727983e-01  9.4286368825991590e-02  1.6481971543023330e-01  2.2166391778798097e-01  9.7685510387198693e-02  4.4380971885145372e-02  3.5250956839671088e-01  7.8179513920468446e-01  1.7066790017880698e-01  -7.0383218450059515e-01  -5.2946324252723587e-01  -4.5036288362825812e-02  -2.3640118255801