<?xml version="1.0"?>
<VTKFile type="UnstructuredGrid"  version="0.1"  >
<UnstructuredGrid>
<Piece  NumberOfPoints="2197" NumberOfCells="10368">
<Points>
<DataArray  type="Float64"  NumberOfComponents="3"  format="ascii">-3.141592653589793 -3.141592653589793 -3.141592653589793  -2.617993877991494 -3.141592653589793 -3.141592653589793  -2.094395102393196 -3.141592653589793 -3.141592653589793  -1.570796326794897 -3.141592653589793 -3.141592653589793  -1.047197551196598 -3.141592653589793 -3.141592653589793  -0.5235987755982987 -3.141592653589793 -3.141592653589793  0 -3.141592653589793 -3.141592653589793  0.5235987755982987 -3.141592653589793 -3.141592653589793  1.047197551196597 -3.141592653589793 -3.141592653589793  1.570796326794897 -3.141592653589793 -3.141592653589793  2.094395102393196 -3.141592653589793 -3.141592653589793  2.617993877991494 -3.141592653589793 -3.141592653589793  3.141592653589793 -3.141592653589793 -3.141592653589793  -3.141592653589793 -2.617993877991494 -3.141592653589793  -2.617993877991494 -2.617993877991494 -3.141592653589793  -2.094395102393196 -2.617993877991494 -3.141592653589793  -1.570796326794897 -2.617993877991494 -3.141592653589793  -1.047197551196598 -2.617993877991494 -3.141592653589793  -0.5235987755982987 -2.617993877991494 -3.141592653589793  0 -2.617993877991494 -3.141592653589793  0.5235987755982987 -2.617993877991494 -3.141592653589793  1.047197551196597 -2.617993877991494 -3.141592653589793  1.570796326794897 -2.617993877991494 -3.141592653589793  2.094395102393196 -2.617993877991494 -3.141592653589793  2.617993877991494 -2.617993877991494 -3.141592653589793  3.141592653589793 -2.617993877991494 -3.141592653589793  -3.141592653589793 -2.094395102393196 -3.141592653589793  -2.617993877991494 -2.094395102393196 -3.141592653589793  -2.094395102393196 -2.094395102393196 -3.141592653589793  -1.570796326794897 -2.094395102393196 -3.141592653589793  -1.047197551196598 -2.094395102393196 -3.141592653589793  -0.5235987755982987 -2.094395102393196 -3.141592653589793  0 -2.094395102393196 -3.141592653589793  0.5235987755982987 -2.094395102393196 -3.141592653589793  1.047197551196597 -2.094395102393196 -3.141592653589793  1.570796326794897 -2.094395102393196 -3.141592653589793  2.094395102393196 -2.094395102393196 -3.141592653589793  2.617993877991494 -2.094395102393196 -3.141592653589793  3.141592653589793 -2.094395102393196 -3.141592653589793  -3.141592653589793 -1.570796326794897 -3.141592653589793  -2.617993877991494 -1.570796326794897 -3.141592653589793  -2.094395102393196 -1.570796326794897 -3.141592653589793  -1.570796326794897 -1.570796326794897 -3.141592653589793  -1.047197551196598 -1.570796326794897 -3.141592653589793  -0.5235987755982987 -1.570796326794897 -3.141592653589793  0 -1.570796326794897 -3.141592653589793  0.5235987755982987 -1.570796326794897 -3.141592653589793  1.047197551196597 -1.570796326794897 -3.141592653589793  1.570796326794897 -1.570796326794897 -3.141592653589793  2.094395102393196 -1.570796326794897 -3.141592653589793  2.617993877991494 -1.570796326794897 -3.141592653589793  3.141592653589793 -1.570796326794897 -3.141592653589793  -3.141592653589793 -1.047197551196598 -3.141592653589793  -2.617993877991494 -1.047197551196598 -3.141592653589793  -2.094395102393196 -1.047197551196598 -3.141592653589793  -1.570796326794897 -1.047197551196598 -3.141592653589793  -1.047197551196598 -1.047197551196598 -3.141592653589793  -0.5235987755982987 -1.047197551196598 -3.141592653589793  0 -1.047197551196598 -3.141592653589793  0.5235987755982987 -1.047197551196598 -3.141592653589793  1.047197551196597 -1.047197551196598 -3.141592653589793  1.570796326794897 -1.047197551196598 -3.141592653589793  2.094395102393196 -1.047197551196598 -3.141592653589793  2.617993877991494 -1.047197551196598 -3.141592653589793  3.141592653589793 -1.047197551196598 -3.141592653589793  -3.141592653589793 -0.5235987755982987 -3.141592653589793  -2.617993877991494 -0.5235987755982987 -3.141592653589793  -2.094395102393196 -0.5235987755982987 -3.141592653589793  -1.570796326794897 -0.5235987755982987 -3.141592653589793  -1.047197551196598 -0.5235987755982987 -3.141592653589793  -0.5235987755982987 -0.5235987755982987 -3.141592653589793  0 -0.5235987755982987 -3.141592653589793  0.5235987755982987 -0.5235987755982987 -3.141592653589793  1.047197551196597 -0.5235987755982987 -3.141592653589793  1.570796326794897 -0.5235987755982987 -3.141592653589793  2.094395102393196 -0.5235987755982987 -3.141592653589793  2.617993877991494 -0.5235987755982987 -3.141592653589793  3.141592653589793 -0.5235987755982987 -3.141592653589793  -3.141592653589793 0 -3.141592653589793  -2.617993877991494 0 -3.141592653589793  -2.094395102393196 0 -3.141592653589793  -1.570796326794897 0 -3.141592653589793  -1.047197551196598 0 -3.141592653589793  -0.5235987755982987 0 -3.141592653589793  0 0 -3.141592653589793  0.5235987755982987 0 -3.141592653589793  1.047197551196597 0 -3.141592653589793  1.570796326794897 0 -3.141592653589793  2.094395102393196 0 -3.141592653589793  2.617993877991494 0 -3.141592653589793  3.141592653589793 0 -3.141592653589793  -3.141592653589793 0.5235987755982987 -3.141592653589793  -2.617993877991494 0.5235987755982987 -3.141592653589793  -2.094395102393196 0.5235987755982987 -3.141592653589793  -1.570796326794897 0.5235987755982987 -3.141592653589793  -1.047197551196598 0.5235987755982987 -3.141592653589793  -0.5235987755982987 0.5235987755982987 -3.141592653589793  0 0.5235987755982987 -3.141592653589793  0.5235987755982987 0.5235987755982987 -3.141592653589793  1.047197551196597 0.5235987755982987 -3.141592653589793  1.570796326794897 0.5235987755982987 -3.141592653589793  2.094395102393196 0.5235987755982987 -3.141592653589793  2.617993877991494 0.5235987755982987 -3.141592653589793  3.141592653589793 0.5235987755982987 -3.141592653589793  -3.141592653589793 1.047197551196597 -3.141592653589793  -2.617993877991494 1.047197551196597 -3.141592653589793  -2.094395102393196 1.047197551196597 -3.141592653589793  -1.570796326794897 1.047197551196597 -3.141592653589793  -1.047197551196598 1.047197551196597 -3.141592653589793  -0.5235987755982987 1.047197551196597 -3.141592653589793  0 1.047197551196597 -3.141592653589793  0.5235987755982987 1.047197551196597 -3.141592653589793  1.047197551196597 1.047197551196597 -3.141592653589793  1.570796326794897 1.047197551196597 -3.141592653589793  2.094395102393196 1.047197551196597 -3.141592653589793  2.617993877991494 1.047197551196597 -3.141592653589793  3.141592653589793 1.047197551196597 -3.141592653589793  -3.141592653589793 1.570796326794897 -3.141592653589793  -2.617993877991494 1.570796326794897 -3.141592653589793  -2.094395102393196 1.570796326794897 -3.141592653589793  -1.570796326794897 1.570796326794897 -3.141592653589793  -1.047197551196598 1.570796326794897 -3.141592653589793  -0.5235987755982987 1.570796326794897 -3.141592653589793  0 1.570796326794897 -3.141592653589793  0.5235987755982987 1.570796326794897 -3.141592653589793  1.047197551196597 1.570796326794897 -3.141592653589793  1.570796326794897 1.570796326794897 -3.141592653589793  2.094395102393196 1.570796326794897 -3.141592653589793  2.617993877991494 1.570796326794897 -3.141592653589793  3.141592653589793 1.570796326794897 -3.141592653589793  -3.141592653589793 2.094395102393196 -3.141592653589793  -2.617993877991494 2.094395102393196 -3.141592653589793  -2.094395102393196 2.094395102393196 -3.141592653589793  -1.570796326794897 2.094395102393196 -3.141592653589793  -1.047197551196598 2.094395102393196 -3.141592653589793  -0.5235987755982987 2.094395102393196 -3.141592653589793  0 2.094395102393196 -3.141592653589793  0.5235987755982987 2.094395102393196 -3.141592653589793  1.047197551196597 2.094395102393196 -3.141592653589793  1.570796326794897 2.094395102393196 -3.141592653589793  2.094395102393196 2.094395102393196 -3.141592653589793  2.617993877991494 2.094395102393196 -3.141592653589793  3.141592653589793 2.094395102393196 -3.141592653589793  -3.141592653589793 2.617993877991494 -3.141592653589793  -2.617993877991494 2.617993877991494 -3.141592653589793  -2.094395102393196 2.617993877991494 -3.141592653589793  -1.570796326794897 2.617993877991494 -3.141592653589793  -1.047197551196598 2.617993877991494 -3.141592653589793  -0.5235987755982987 2.617993877991494 -3.141592653589793  0 2.617993877991494 -3.141592653589793  0.5235987755982987 2.617993877991494 -3.141592653589793  1.047197551196597 2.617993877991494 -3.141592653589793  1.570796326794897 2.617993877991494 -3.141592653589793  2.094395102393196 2.617993877991494 -3.141592653589793  2.617993877991494 2.617993877991494 -3.141592653589793  3.141592653589793 2.617993877991494 -3.141592653589793  -3.141592653589793 3.141592653589793 -3.141592653589793  -2.617993877991494 3.141592653589793 -3.141592653589793  -2.094395102393196 3.141592653589793 -3.141592653589793  -1.570796326794897 3.141592653589793 -3.141592653589793  -1.047197551196598 3.141592653589793 -3.141592653589793  -0.5235987755982987 3.141592653589793 -3.141592653589793  0 3.141592653589793 -3.141592653589793  0.5235987755982987 3.141592653589793 -3.141592653589793  1.047197551196597 3.141592653589793 -3.141592653589793  1.570796326794897 3.141592653589793 -3.141592653589793  2.094395102393196 3.141592653589793 -3.141592653589793  2.617993877991494 3.141592653589793 -3.141592653589793  3.141592653589793 3.141592653589793 -3.141592653589793  -3.141592653589793 -3.141592653589793 -2.617993877991494  -2.617993877991494 -3.141592653589793 -2.617993877991494  -2.094395102393196 -3.141592653589793 -2.617993877991494  -1.570796326794897 -3.141592653589793 -2.617993877991494  -1.047197551196598 -3.141592653589793 -2.617993877991494  -0.5235987755982987 -3.141592653589793 -2.617993877991494  0 -3.141592653589793 -2.617993877991494  0.5235987755982987 -3.141592653589793 -2.617993877991494  1.047197551196597 -3.141592653589793 -2.617993877991494  1.570796326794897 
[...]
<PointData  Scalars="f_221452"> 
<DataArray  type="Float64"  Name="f_221452"  format="ascii">6.6393396549264766e-02  6.4785413992546476e-02  -1.4139606621396643e-02  -1.3002725560498792e-03  1.9502957093068699e-03  -4.0163184689252521e-02  -7.3316449958057167e-02  -3.5935831619780673e-02  -1.2921218728171011e-02  -3.4819910909553047e-03  -2.4388260300009641e-02  5.5072554672533219e-02  6.6393396549264766e-02  4.9416815609777461e-02  -6.7060190337911629e-01  -1.0138074334976921e+00  -1.1182198581307914e+00  -1.0410560734412544e+00  -7.8567569190762099e-01  -5.8701402182011551e-02  6.6052675657551274e-01  1.1154433248796554e+00  1.0994890876095582e+00  9.6618354186275124e-01  7.7344627532969845e-01  4.9416815609777461e-02  5.6889755215067134e-03  -1.1204230965850637e+00  -1.4271640636417489e+00  -1.4253040490789874e+00  -1.6131967605223867e+00  -9.6269915072236945e-01  2.2158194213192078e-02  1.0020643863227723e+00  1.4347682803678425e+00  1.4637801040111011e+00  1.6205886453294980e+00  1.0365501305088285e+00  5.6889755215067134e-03  -4.6321284400006723e-03  -1.0881126758781048e+00  -1.4764765846153736e+00  -1.8468240744038220e+00  -1.4634998915147868e+00  -1.0951228540756150e+00  -2.6998024619061364e-03  1.1241828558001075e+00  1.4240216686849869e+00  1.8331525113606386e+00  1.4197600543513034e+00  1.1224989178081950e+00  -4.6321284400006723e-03  2.1007742079105510e-02  -9.6353368472981671e-01  -1.6223740988536435e+00  -1.4224508684803707e+00  -1.4295436272164344e+00  -1.1209735031118375e+00  6.3490014183556842e-03  1.0464724567234587e+00  1.6219490717714946e+00  1.4540733887930699e+00  1.4279534286456368e+00  1.0000130833699887e+00  2.1007742079105510e-02  -5.5145940281953812e-02  -7.9021851405560350e-01  -1.0340827814206066e+00  -1.1242125619079817e+00  -9.9997561066485552e-01  -6.5863351686371918e-01  4.6919737367373607e-02  7.8308084110609932e-01  9.6424793440924184e-01  1.0913049889059248e+00  1.1132113387612403e+00  6.6122344914008324e-01  -5.5145940281953812e-02  -5.3226921434035658e-02  -4.1611657068476929e-02  -6.9856115224930342e-03  5.3109085593479304e-03  -1.4285027278437269e-02  5.6429477902668994e-02  5.7371678881121053e-02  5.7161810224947228e-02  -1.9446897684464184e-02  5.2478845279616188e-04  -7.7822555247158412e-03  -5.1770726831833855e-02  -5.3226921434035658e-02  -6.4266354010512325e-02  6.6162886586103709e-01  1.1154919783945345e+00  1.0989513125911083e+00  9.7110305411191722e-01  7.8315215435261043e-01  3.9500570439026945e-02  -6.5931384446730246e-01  -1.0071218728360314e+00  -1.1165031235536467e+00  -1.0378450927636453e+00  -7.7539930078107511e-01  -6.4266354010512325e-02  1.8332881094660369e-02  1.0105809158548542e+00  1.4310842954012211e+00  1.4618293995222051e+00  1.6209743424907339e+00  1.0371386939224840e+00  4.7961296522528781e-03  -1.1218454227079413e+00  -1.4294664283799272e+00  -1.4280897776105956e+00  -1.6155580288084848e+00  -9.6149630106769768e-01  1.8332881094660369e-02  -6.8881356154855723e-03  1.1294634397561214e+00  1.4302634314241414e+00  1.8452969487551043e+00  1.4246573838342182e+00  1.1172709779496310e+00  -5.1297473154738073e-03  -1.0969409678679076e+00  -1.4661598239893809e+00  -1.8412294134136225e+00  -1.4611954927528792e+00  -1.0985568721319647e+00  -6.8881356154855723e-03  1.0112588055149788e-02  1.0399965096852561e+00  1.6214576664917431e+00  1.4563136075313967e+00  1.4340232729407878e+00  9.9706016515583895e-01  1.6305199753978074e-02  -9.7029022346306326e-01  -1.6003711466398891e+00  -1.4278375151764104e+00  -1.4272439943403741e+00  -1.1110094973320810e+00  1.0112588055149788e-02  3.6718988833804596e-02  7.8745066738215530e-01  9.6402006108068661e-01  1.0957807977040748e+00  1.1186811042055662e+00  6.7252899926140197e-01  -6.7728261728644115e-02  -7.7684847858139461e-01  -1.0367647974417138e+00  -1.1194527730348958e+00  -1.0032613827625296e+00  -6.5856082623601675e-01  3.6718988833804596e-02  6.6393396549264766e-02  6.4785413992546476e-02  -1.4139606621396643e-02  -1.3002725560498792e-03  1.9502957093068699e-03  -4.0163184689252521e-02  -7.3316449958057167e-02  -3.5935831619780673e-02  -1.2921218728171011e-02  -3.4819910909553047e-03  -2.4388260300009641e-02  5.5072554672533219e-02  6.6393396549264766e-02  5.9186461245996504e-02  1.6991026048356703e-02  -3.4792251205731414e-02  -1.0105796890667641e-02  -5.1166653093109235e-02  -6.1092116212943338e-02  -3.9415340149681767e-02  -1.3437256051740558e-02  2.2438950996282861e-02  4.0113339980573743e-03  4.3919411655515071e-02  8.1852238914180545e-02  5.9186461245996504e-02  -4.4637335445009852e-04  -6.0180796417603455e-01  -8.6604544365537628e-01  -9.6039848183745191e-01  -9.7010439246969005e-01  -6.2190001415409157e-01  -3.0039323527678727e-02  6.0086802849760690e-01  8.9698341032227513e-01  9.5239183784129089e-01  8.9696970656799457e-01  6.3615730883092514e-01  -4.4637335445009852e-04  -2.6171228619741100e-02  -8.9914823862369309e-01  -1.2469511490883911e+00  -1.4259648658826751e+00  -1.4127181555815025e+00  -7.9697430348475806e-01  3.7807064180615663e-02  8.6295132240563666e-01  1.2401522968009333e+00  1.4318393178954369e+00  1.4012047737060545e+00  8.6086772005834478e-01  -2.6171228619741100e-02  -3.8666626112013646e-03  -9.5309838154936422e-01  -1.4319908229319538e+00  -1.6427928286495619e+00  -1.3919989623729223e+00  -9.4389937946535840e-01  1.6728501422611633e-02  9.4998732600917579e-01  1.4267629004216280e+00  1.6424806926909981e+00  1.3354596511312828e+00  9.7261288060641871e-01  -3.8666626112013646e-03  -4.3313397644210098e-02  -9.1032243799869583e-01  -1.3988538499009049e+00  -1.3312620400008237e+00  -1.3412248639912348e+00  -9.7174610025022967e-01  5.7214296426798435e-02  9.6421119179488735e-01  1.4017586967642213e+00  1.3795141558858743e+00  1.3296792504539416e+00  8.6015573929250921e-01  -4.3313397644210098e-02  -7.8671599058117603e-02  -6.4099867655743059e-01  -8.5615658612636369e-01  -9.6867232204648701e-01  -8.5886525239001255e-01  -4.9067427494404253e-01  6.2347731961840597e-02  6.2523028017341475e-01  8.0455031324520143e-01  9.4778966323009817e-01  9.7229499978632838e-01  4.9406513725382878e-01  -7.8671599058117603e-02  -5.3796296400768585e-02  -5.9968914801448673e-03  2.0043311594081716e-02  4.5458711305660987e-03  4.4815672116929800e-02  7.6538597556048832e-02  4.3299971358857513e-02  2.5190143077578751e-02  -3.3727046974766278e-02  -1.6114794826881648e-02  -5.6441897727605030e-02  -5.9619828441580189e-02  -5.3796296400768585e-02  -2.0211570390848227e-02  5.9280128359029760e-01  8.9380660618203167e-01  9.5478836676888268e-01  9.0851957862028643e-01  6.4440680831440722e-01  1.3378711711822653e-02  -6.0307198511170834e-01  -8.5887201477089459e-01  -9.5058168981757163e-01  -9.6486406703688887e-01  -6.2772591972529490e-01  -2.0211570390848227e-02  3.6232527127883114e-02  8.6760910699198446e-01  1.2403463995317903e+00  1.4349523927691978e+00  1.4005882844797632e+00  8.5736136624722969e-01  -3.0976898195166185e-02  -8.9309472760197517e-01  -1.2448164673026736e+00  -1.4266803565857760e+00  -1.3967163018224249e+00  -7.9818002230393592e-01  3.6232527127883114e-02  1.2988784955191120e-02  9.5831295441564313e-01  1.4256830501964033e+00  1.6514392787064249e+00  1.3263822555922831e+00  9.7563754015238258e-01  -1.1411264111590394e-02  -9.5269904035388298e-01  -1.4273674970158736e+00  -1.6455699018319798e+00  -1.3911720085050712e+00  -9.4363004998148470e-01  1.2988784955191120e-02  6.3013919506256955e-02  9.6575281786407152e-01  1.4057774429827323e+00  1.3846029072504826e+00  1.3383936712270954e+00  8.6217226046420137e-01  -4.9979108122991056e-02  -9.0334689387862255e-01  -1.3992405592280508e+00  -1.3398360301283980e+00  -1.3398696514680497e+00  -9.7977312399038352e-01  6.3013919506256955e-02  6.8422511167378380e-02  6.3703179833969725e-01  7.9475680301008245e-01  9.4447793387418677e-01  9.7434487308881912e-01  4.9790181395406208e-01  -6.9566572310850838e-02  -6.4855920217695817e-01  -8.4585005770546673e-01  -9.5909791879888551e-01  -8.6124476941532679e-01  -4.9896186541626303e-01  6.8422511167378380e-02  5.9186461245996504e-02  1.6991026048356703e-02  -3.4792251205731414e-02  -1.0105796890667641e-02  -5.1166653093109235e-02  -6.1092116212943338e-02  -3.9415340149681767e-02  -1.3437256051740558e-02  2.2438950996282861e-02  4.0113339980573743e-03  4.3919411655515071e-02  8.1852238914180545e-02  5.9186461245996504e-02  1.4748294186104521e-02  1.6403958219591352e-02  -2.0499656054527245e-02  -3.4118992074815245e-02  -4.3747963449154215e-02  -5.2741439643136982e-02  -2.0996402715837127e-02  2.7682858914479433e-03  3.1135891557458439e-02  2.4039070566957928e-02  4.5078382100145288e-02  1.6617880479736832e-02  1.4748294186104521e-02  1.3596446087167469e-02  -3.2988130610280325e-01  -5.2282484799535611e-01  -6.1169858171228186e-01  -5.6270288719959394e-01  -3.1767998445426116e-01  -8.0635319071155655e-03  3.1922634575613695e-01  5.2621121120048420e-01  6.3176147251908132e-01  5.5850909549799210e-01  3.2430813460308983e-01  1.3596446087167469e-02  -2.1235818040577403e-02  -5.3179330728776941e-01  -8.2231027640556509e-01  -9.7276824084544411e-01  -8.3715309207987687e-01  -4.3963640807813092e-01  1.3266808333300550e-02  5.2778872818325895e-01  8.2350295586782885e-01  9.6985070001876850e-01  8.2386252762001311e-01  4.6582885871525553e-01  -2.1235818040577403e-02  -3.0539947044686988e-02  -6.2481015538135631e-01  -9.7317541748143199e-01  -1.0464158949188396e+00  -9.0343614377035175e-01  -5.3201933435622417e-01  3.4932923281075376e-02  6.1256519806519316e-01  9.7226247819346612e-01  1.0416430519794246e+00  9.1072574755065216e-01  5.4380241464665979e-01  -3.0539947044686988e-02  -5.4243893051776314e-02  -5.5488924139332774e-01  -8.2252227092778107e-01  -9.0974557197797035e-01  -8.0466084016030892e-01  -4.7494418355156115e-01  5.0618300562425000e-02  5.7072917007235457e-01  8.4144624947519253e-01  8.9914068200958119e-01  7.9520167715405976e-01  4.5868100528051953e-01  -5.4243893051776314e-02  -2.6760289913428097e-02  -3.2479717757398507e-01  -4.7423750166142176e-01  -5.3853692287030508e-01  -4.4837651743975643e-01  -1.9840478908317122e-01  5.1863176419630265e-02  3.0680661250848040e-01  4.3952391287054460e-01  5.2830595318187767e-01  4.7783865886624172e-01  2.0578683166543169e-01  -2.6760289913428097e-02  -2.7316374081307753e-02  -2.1737143061811908e-03  2.7043346987502583e-02  2.9200228223741877e-02  5.2621026061382442e-02  2.9286912974262523e-02  2.5255859251154346e-02  1.1882061265981606e-02  -2.5682781635109540e-02  -3.5567142159220362e-02  -4.3281012159089541e-02  -5.3752866209971661e-02  -2.7316374081307753e-02  -1.1319297461918258e-02  3.1562003245532916e-01  5.2126953274125720e-01  6.3540549258463230e-01  5.5980313920571889e-01  3.3029870220990859e-01  1.0198903505049954e-02  -3.2397411653150560e-01  -5.2265641639694194e-01  -6.0159910098559866e-01  -5.6719766642101455e-01  -3.0961732437432060e-01  -1.1319297461918258e-02  2.2796796145694406e-02  5.1111205733545628e-01  8.2561905333735686e-01  9.6855272454969910e-01  8.1899613109119640e-01  4.6430661326787337e-01  -3.0129195452703615e-02  -5.3259625932091992e-01  -8.2220819359720898e-01  -9.6462666311110634e-01  -8.3452193532046737e-01  -4.3610860060506551e-01  2.2796796145694406e-02  3.6718400842250462e-02  6.1260046457230011e-01  9.6884477174546135e-01  1.0520487180378080e+00  9.0453936253084732e-01  5.3996807010321091e-01  -3.8917194977035954e-02  -6.3099702803986801e-01  -9.6701553024184661e-01  -1.0470713660310982e+00  -8.9935979755487760e-01  -5.3643702670460480e-01  3.6718400842250462e-02  4.4111625718609083e-02  5.6965244022292882e-01  8.3925466962886330e-01  9.0338412704853377e-01  8.1001695300323828e-01  4.4911843444297489e-01  -5.4654388998893556e-02  -5.5331657473047979e-01  -8.2365525247145988e-01  -9.0654734413619575e-01  -8.0649145395340738e-01  -4.7875248469543930e-01  4.4111625718609083e-02  5.8802206417511833e-02  3.0012671240863781e-01  4.3842000098151707e-01  5.3157045905384270e-01  4.8099266542926578e-01  2.0573007276181801e-01  -2.2878444661461602e-02  -3.2114506795098230e-01  -4.6880761168835200e-01  -5.4196616922276175e-01  -4.4989545267336162e-01  -2.1094587568607703e-01  5.8802206417511833e-02  1.4748294186104521e-02  1.6403958219591352e-02  -2.0499656054527245e-02  -3.4118992074815245e-02  -4.3747963449154215e-02  -5.2741439643136982e-02  -2.0996402715837127e-02  2.7682858914479433e-03  3.1135891557458439e-02  2.4039070566957928e-02  4.5078382100145288e-02  1.6617880479736832e-02  1.4748294186104521e-02  6.4225007305018615e-03  -1.5049718408169752e-02  -2.3740012902433463e-02  -2.1620197064220865e-02  -2.5045490777217249e-02  -1.6558808260700775e-02  1.5238142632980476e-04  3.6505683713590050e-03  2.4718835254094282e-02  4.2485975854622035e-02  2.4729559024753683e-02  1.6873797496608674e-02  6.4225007305018615e-03  -1.2160954104248851e-02  -4.9335532543104729e-02  -5.7277148018986895e-02  -5.3278873043747912e-02  -3.7388078758944836e-02  -3.0643389092657896e-03  2.0491425584178585e-02  5.2456440696759581e-02  7.4669907048781903e-02  4.0895326881291695e-02  9.7960598342708843e-03  9.4325457036497067e-03  -1.2160954104248851e-02  -3.2167476873834935e-02  -6.9378518227765723e-02  -7.1315020304634269e-02  -5.1494264680152543e-02  -5.1113287744802328e-04  2.6356269733000877e-02  2.9876135594175610e-02  3.5909100657636916e-02  7.3738033127247221e-02  5.1898968568368439e-02  -6.8953443369933480e-04  -4.8061215422481500e-03  -3.2167476873834935e-02  -3.7040894783702483e-02  -4.8163032206632324e-02  -4.6700961688690354e-02  -6.4146946505121141e-03  5.0282390638636723e-02  5.0422686968662492e-02  1.2591725035662270e-02  4.4083267245944351e-02  5.2136454617358455e-02  3.2725477385516194e-03  -4.3603823635637869e-02  -4.0881180511169547e-02  -3.7040894783702483e-02  -2.7547313557019924e-02  -3.2419869461735732e-03  -3.8964408044651054e-03  4.4982065057058679e-02  8.6960520557237284e-02  4.8289248123316683e-02  2.8977417876221753e-02  3.7641614495229243e-02  -3.1518836201045856e-03  -4.3830560910245307e-02  -7.4999005570502139e-02  -6.9106592995715643e-02  -2.7547313557019924e-02  -1.9649079396750563e-02  -3.1215253534781482e-03  9.8669521209344031e-03  4.6095890304906073e-02  7.1514931748006091e-02  4.7761035070124226e-02  2.2143423986845094e-02  5.3080564240318307e-03  -3.5005411884164540e-02  -4.6443360423510140e-02  -5.6756293144845781e-02  -4.7835401603496856e-02  -1.9649079396750563e-02  1.2847188567408209e-03  1.8192445072292365e-02  3.0550072037429415e-02  3.5102694782745636e-02  3.2455088712942871e-02  1.1834573901387906e-02  5.3517279729278170e-03  -1.1395831644050307e-02  -2.6618877587342701e-02  -1.3154159021208676e-02  -2.1005220277733962e-02  -3.0394798006085133e-02  1.2847188567408209e-03  1.5843855789051651e-02  4.4984023000043852e-02  6.7987696643206141e-02  4.8536350930384289e-02  1.1693422649169368e-02  2.7059474967399215e-03  -7.4250407963973404e-03  -4.7046749620235619e-02  -4.8868066762586718e-02  -3.5525723258786897e-02  -3.9202171859144569e-02  -3.0363113179754522e-04  1.5843855789051651e-02  1.7175857950455946e-02  5.0493686427920820e-02  7.3208711328767689e-02  4.1525526800369611e-02  -8.2974425354627110e-03  -1.1438594200393070e-02  -3.5530596546422030e-02  -7.2436839962204819e-02  -6.8386391337847907e-02  -5.1109555336734683e-02  3.5370838610806468e-03  3.4761443602661833e-02  1.7175857950455946e-02  8.3614183955260917e-03  4.6642179206759053e-02  4.9849539187288253e-02  -2.6364621340349489e-03  -4.7367077792274642e-02  -5.4776426569642718e-02  -3.5339992991735930e-02  -4.4500101747527922e-02  -4.2013450083239715e-02  -1.0845555801000833e-03  6.0921723730578879e-02  4.4311338148040093e-02  8.3614183955260917e-03  2.9755191818765816e-02  4.1931893296880192e-02  4.7404325312204584e-03  -4.6456284530820055e-02  -7.2087330653154216e-02  -7.1352444964364575e-02  -4.3091834648184321e-02  -4.8828506307653707e-03  -2.1369751193313635e-03  4.1831753677108487e-02  6.7931670272858152e-02  4.6666652752157790e-02  2.9755191818765816e-02  2.1445598069594961e-02  -3.3965681409036334e-03  -3.2366237457287603e-02  -4.0195623665289087e-02  -5.0276306549768029e-02  -5.0260535596412782e-02  -1.0308546756926549e-02  -2.7080241514473055e-04  1.6804852622203000e-02  3.1537721608234502e-02  7.3498718253724907e-02  4.4875684097404098e-02  2.1445598069594961e-02  6.4225007305018615e-03  -1.5049718408169752e-02  -2.3740012902433463e-02  -2.1620197064220865e-02  -2.5045490777217249e-02  -1.6558808260700775e-02  1.5238142632980476e-04  3.6505683713590050e-03  2.4718835254094282e-02  4.2485975854622035e-02  2.4729559024753683e-02  1.6873797496608674e-02  6.4225007305018615e-03  -2.2767566710021812e-02  -4.9320086736949174e-02  -5.1158301463869710e-02  -3.5525580055202219e-02  -3.2497434433382606e-02  1.2729140359927961e-02  1.6031311850216882e-02  3.7008728887543751e-02  5.9217800749683074e-02  3.0928157767769002e-02  2.4403379292149450e-02  4.3151899887556239e-03  -2.2767566710021812e-02  -2.6830365014530792e-02  2.0480220150212425e-01  4.8405126773990742e-01  5.3122039628877038e-01  4.4265284360907620e-01  3.0185301790322788e-01  5.4902488807839968e-02  -2.1157356413874082e-01  -4.6173905247831420e-01  -5.5336109711171977e-01  -4.7051448841592969e-01  -3.2285909556465858e-01  -2.6830365014530792e-02  -4.9692073506602215e-02  4.4552771908148692e-01  8.1159543178824145e-01  9.0417468163177650e-01  8.3630105821374290e-01  5.7019655445758077e-01  4.5155301317843628e-02  -4.8457722922341201e-01  -8.0528422609339956e-01  -9.0686602453281995e-01  -8.1711649240284911e-01  -5.5153580644673061e-01  -4.9692073506602215e-02  -3.1347418961680973e-02  5.4591178376687544e-01  9.0264382533362353e-01  1.0539524718540834e+00  9.6865360849729565e-01  6.0900756305618409e-01  2.0876861385196361e-02  -5.3567270698260938e-01  -8.9645811543371090e-01  -1.0442795567690297e+00  -9.6979372214430992e-01  -6.2089662253795375e-01  -3.1347418961680973e-02  -1.4980914021000361e-02  4.6675232860865945e-01  8.2588335162628257e-01  9.7826374067557431e-01  8.1641773460643674e-01  5.1132720803328369e-01  2.0201494339397406e-02  -4.4001968248238715e-01  -8.4571513960537459e-01  -9.7044193744243423e-01  -8.2204303991688599e-01  -5.2702257344433900e-01  -1.4980914021000361e-02  5.4113908151023505e-03  3.2345609694308158e-01  5.5386771314327377e-01  6.2088160604977405e-01  5.2505437211556327e-01  3.1440333286750333e-01  5.4158021124290148e-04  -3.0720240906034774e-01  -5.7788019380340616e-01  -6.1369446634818248e-01  -5.1355292799981023e-01  -3.3042090711661798e-01  5.4113908151023505e-03  2.0583489145847535e-02  3.6118357976119370e-02  4.6819406127969906e-02  2.7536563811301859e-02  3.3450216809288107e-02  -2.7722770316223081e-03  -1.3598169485187942e-02  -5.1327098581732053e-02  -2.6738760797297572e-02  -1.7674827586968232e-02  -1.1267377358838763e-02  3.7356389892545310e-03  2.0583489145847535e-02  5.3809653497634398e-02  -2.0831407557930265e-01  -4.5648977255032891e-01  -5.4611110435185273e-01  -4.7137480863747722e-01  -3.2523000873115820e-01  -3.4159856961506328e-02  2.2228058506720991e-01  4.8608698528186750e-01  5.4067848062569779e-01  4.3726188860571991e-01  2.9223363612341330e-01  5.3809653497634398e-02  4.1356904499815009e-02  -4.7782095912589390e-01  -8.0483911888675796e-01  -9.0624465732318682e-01  -8.2787980830393271e-01  -5.5550377806433460e-01  -5.3858666344342422e-02  4.6453291415698356e-01  8.1005156967025005e-01  9.1106253307640106e-01  8.3423599380369717e-01  5.7117053732398748e-01  4.1356904499815009e-02  2.4433199396611833e-02  -5.2981927920413652e-01  -9.1295901937199364e-01  -1.0432418064641973e+00  -9.7830526125210870e-01  -6.3366672277901259e-01  -2.9411194883250801e-02  5.4819588319234813e-01  9.0436530045855057e-01  1.0583378743138911e+00  9.8059344318609332e-01  6.1416702938421797e-01  2.4433199396611833e-02  1.0555271652228068e-02  -4.4316258482314763e-01  -8.3207790775625101e-01  -9.6268587468430034e-01  -8.2179878987723864e-01  -5.3493906753171894e-01  -2.6467800893