<?xml version="1.0"?>
<VTKFile type="UnstructuredGrid"  version="0.1"  >
<UnstructuredGrid>
<Piece  NumberOfPoints="9261" NumberOfCells="48000">
<Points>
<DataArray  type="Float64"  NumberOfComponents="3"  format="ascii">-3.141592653589793 -3.141592653589793 -3.141592653589793  -2.827433388230814 -3.141592653589793 -3.141592653589793  -2.513274122871834 -3.141592653589793 -3.141592653589793  -2.199114857512855 -3.141592653589793 -3.141592653589793  -1.884955592153876 -3.141592653589793 -3.141592653589793  -1.570796326794897 -3.141592653589793 -3.141592653589793  -1.256637061435917 -3.141592653589793 -3.141592653589793  -0.9424777960769379 -3.141592653589793 -3.141592653589793  -0.6283185307179586 -3.141592653589793 -3.141592653589793  -0.3141592653589793 -3.141592653589793 -3.141592653589793  0 -3.141592653589793 -3.141592653589793  0.3141592653589789 -3.141592653589793 -3.141592653589793  0.6283185307179586 -3.141592653589793 -3.141592653589793  0.9424777960769379 -3.141592653589793 -3.141592653589793  1.256637061435917 -3.141592653589793 -3.141592653589793  1.570796326794897 -3.141592653589793 -3.141592653589793  1.884955592153876 -3.141592653589793 -3.141592653589793  2.199114857512855 -3.141592653589793 -3.141592653589793  2.513274122871834 -3.141592653589793 -3.141592653589793  2.827433388230814 -3.141592653589793 -3.141592653589793  3.141592653589793 -3.141592653589793 -3.141592653589793  -3.141592653589793 -2.827433388230814 -3.141592653589793  -2.827433388230814 -2.827433388230814 -3.141592653589793  -2.513274122871834 -2.827433388230814 -3.141592653589793  -2.199114857512855 -2.827433388230814 -3.141592653589793  -1.884955592153876 -2.827433388230814 -3.141592653589793  -1.570796326794897 -2.827433388230814 -3.141592653589793  -1.256637061435917 -2.827433388230814 -3.141592653589793  -0.9424777960769379 -2.827433388230814 -3.141592653589793  -0.6283185307179586 -2.827433388230814 -3.141592653589793  -0.3141592653589793 -2.827433388230814 -3.141592653589793  0 -2.827433388230814 -3.141592653589793  0.3141592653589789 -2.827433388230814 -3.141592653589793  0.6283185307179586 -2.827433388230814 -3.141592653589793  0.9424777960769379 -2.827433388230814 -3.141592653589793  1.256637061435917 -2.827433388230814 -3.141592653589793  1.570796326794897 -2.827433388230814 -3.141592653589793  1.884955592153876 -2.827433388230814 -3.141592653589793  2.199114857512855 -2.827433388230814 -3.141592653589793  2.513274122871834 -2.827433388230814 -3.141592653589793  2.827433388230814 -2.827433388230814 -3.141592653589793  3.141592653589793 -2.827433388230814 -3.141592653589793  -3.141592653589793 -2.513274122871834 -3.141592653589793  -2.827433388230814 -2.513274122871834 -3.141592653589793  -2.513274122871834 -2.513274122871834 -3.141592653589793  -2.199114857512855 -2.513274122871834 -3.141592653589793  -1.884955592153876 -2.513274122871834 -3.141592653589793  -1.570796326794897 -2.513274122871834 -3.141592653589793  -1.256637061435917 -2.513274122871834 -3.141592653589793  -0.9424777960769379 -2.513274122871834 -3.141592653589793  -0.6283185307179586 -2.513274122871834 -3.141592653589793  -0.3141592653589793 -2.513274122871834 -3.141592653589793  0 -2.513274122871834 -3.141592653589793  0.3141592653589789 -2.513274122871834 -3.141592653589793  0.6283185307179586 -2.513274122871834 -3.141592653589793  0.9424777960769379 -2.513274122871834 -3.141592653589793  1.256637061435917 -2.513274122871834 -3.141592653589793  1.570796326794897 -2.513274122871834 -3.141592653589793  1.884955592153876 -2.513274122871834 -3.141592653589793  2.199114857512855 -2.513274122871834 -3.141592653589793  2.513274122871834 -2.513274122871834 -3.141592653589793  2.827433388230814 -2.513274122871834 -3.141592653589793  3.141592653589793 -2.513274122871834 -3.141592653589793  -3.141592653589793 -2.199114857512855 -3.141592653589793  -2.827433388230814 -2.199114857512855 -3.141592653589793  -2.513274122871834 -2.199114857512855 -3.141592653589793  -2.199114857512855 -2.199114857512855 -3.141592653589793  -1.884955592153876 -2.199114857512855 -3.141592653589793  -1.570796326794897 -2.199114857512855 -3.141592653589793  -1.256637061435917 -2.199114857512855 -3.141592653589793  -0.9424777960769379 -2.199114857512855 -3.141592653589793  -0.6283185307179586 -2.199114857512855 -3.141592653589793  -0.3141592653589793 -2.199114857512855 -3.141592653589793  0 -2.199114857512855 -3.141592653589793  0.3141592653589789 -2.199114857512855 -3.141592653589793  0.6283185307179586 -2.199114857512855 -3.141592653589793  0.9424777960769379 -2.199114857512855 -3.141592653589793  1.256637061435917 -2.199114857512855 -3.141592653589793  1.570796326794897 -2.199114857512855 -3.141592653589793  1.884955592153876 -2.199114857512855 -3.141592653589793  2.199114857512855 -2.199114857512855 -3.141592653589793  2.513274122871834 -2.199114857512855 -3.141592653589793  2.827433388230814 -2.199114857512855 -3.141592653589793  3.141592653589793 -2.199114857512855 -3.141592653589793  -3.141592653589793 -1.884955592153876 -3.141592653589793  -2.827433388230814 -1.884955592153876 -3.141592653589793  -2.513274122871834 -1.884955592153876 -3.141592653589793  -2.199114857512855 -1.884955592153876 -3.141592653589793  -1.884955592153876 -1.884955592153876 -3.141592653589793  -1.570796326794897 -1.884955592153876 -3.141592653589793  -1.256637061435917 -1.884955592153876 -3.141592653589793  -0.9424777960769379 -1.884955592153876 -3.141592653589793  -0.6283185307179586 -1.884955592153876 -3.141592653589793  -0.3141592653589793 -1.884955592153876 -3.141592653589793  0 -1.884955592153876 -3.141592653589793  0.3141592653589789 -1.884955592153876 -3.141592653589793  0.6283185307179586 -1.884955592153876 -3.141592653589793  0.9424777960769379 -1.884955592153876 -3.141592653589793  1.256637061435917 -1.884955592153876 -3.141592653589793  1.570796326794897 -1.884955592153876 -3.141592653589793  1.884955592153876 -1.884955592153876 -3.141592653589793  2.199114857512855 -1.884955592153876 -3.141592653589793  2.513274122871834 -1.884955592153876 -3.141592653589793  2.827433388230814 -1.884955592153876 -3.141592653589793  3.141592653589793 -1.884955592153876 -3.141592653589793  -3.141592653589793 -1.570796326794897 -3.141592653589793  -2.827433388230814 -1.570796326794897 -3.141592653589793  -2.513274122871834 -1.570796326794897 -3.141592653589793  -2.199114857512855 -1.570796326794897 -3.141592653589793  -1.884955592153876 -1.570796326794897 -3.141592653589793  -1.570796326794897 -1.570796326794897 -3.141592653589793  -1.256637061435917 -1.570796326794897 -3.141592653589793  -0.9424777960769379 -1.570796326794897 -3.141592653589793  -0.6283185307179586 -1.570796326794897 -3.141592653589793  -0.3141592653589793 -1.570796326794897 -3.141592653589793  0 -1.570796326794897 -3.141592653589793  0.3141592653589789 -1.570796326794897 -3.141592653589793  0.6283185307179586 -1.570796326794897 -3.141592653589793  0.9424777960769379 -1.570796326794897 -3.141592653589793  1.256637061435917 -1.570796326794897 -3.141592653589793  1.570796326794897 -1.570796326794897 -3.141592653589793  1.884955592153876 -1.570796326794897 -3.141592653589793  2.199114857512855 -1.570796326794897 -3.141592653589793  2.513274122871834 -1.570796326794897 -3.141592653589793  2.827433388230814 -1.570796326794897 -3.141592653589793  3.141592653589793 -1.570796326794897 -3.141592653589793  -3.141592653589793 -1.256637061435917 -3.141592653589793  -2.827433388230814 -1.256637061435917 -3.141592653589793  -2.513274122871834 -1.256637061435917 -3.141592653589793  -2.199114857512855 -1.256637061435917 -3.141592653589793  -1.884955592153876 -1.256637061435917 -3.141592653589793  -1.570796326794897 -1.256637061435917 -3.141592653589793  -1.256637061435917 -1.256637061435917 -3.141592653589793  -0.9424777960769379 -1.256637061435917 -3.141592653589793  -0.6283185307179586 -1.256637061435917 -3.141592653589793  -0.3141592653589793 -1.256637061435917 -3.141592653589793  0 -1.256637061435917 -3.141592653589793  0.3141592653589789 -1.256637061435917 -3.141592653589793  0.6283185307179586 -1.256637061435917 -3.141592653589793  0.9424777960769379 -1.256637061435917 -3.141592653589793  1.256637061435917 -1.256637061435917 -3.141592653589793  1.570796326794897 -1.256637061435917 -3.141592653589793  1.884955592153876 -1.256637061435917 -3.141592653589793  2.199114857512855 -1.256637061435917 -3.141592653589793  2.513274122871834 -1.256637061435917 -3.141592653589793  2.827433388230814 -1.256637061435917 -3.141592653589793  3.141592653589793 -1.256637061435917 -3.141592653589793  -3.141592653589793 -0.9424777960769379 -3.141592653589793  -2.827433388230814 -0.9424777960769379 -3.141592653589793  -2.513274122871834 -0.9424777960769379 -3.141592653589793  -2.199114857512855 -0.9424777960769379 -3.141592653589793  -1.884955592153876 -0.9424777960769379 -3.141592653589793  -1.570796326794897 -0.9424777960769379 -3.141592653589793  -1.256637061435917 -0.9424777960769379 -3.141592653589793  -0.9424777960769379 -0.9424777960769379 -3.141592653589793  -0.6283185307179586 -0.9424777960769379 -3.141592653589793  -0.3141592653589793 -0.9424777960769379 -3.141592653589793  0 -0.9424777960769379 -3.141592653589793  0.3141592653589789 -0.9424777960769379 -3.141592653589793  0.6283185307179586 -0.9424777960769379 -3.141592653589793  0.9424777960769379 -0.9424777960769379 -3.141592653589793  1.256637061435917 -0.9424777960769379 -3.141592653589793  1.570796326794897 -0.9424777960769379 -3.141592653589793  1.884955592153876 -0.9424777960769379 -3.141592653589793  2.199114857512855 -0.9424777960769379 -3.141592653589793  2.513274122871834 -0.9424777960769379 -3.141592653589793  2.827433388230814 -0.9424777960769379 -3.141592653589793  3.141592653589793 -0.9424777960769379 -3.141592653589793  -3.141592653589793 -0.6283185307179586 -3.141592653589793  -2.827433388230814 -0.6283185307179586 -3.141592653589793  -2.513274122871834 -0.6283185307179586 -3.141592653589793  -2.19
[...]
<PointData  Scalars="f_26280"> 
<DataArray  type="Float64"  Name="f_26280"  format="ascii">4.4461314235872379e-02  1.3022963898624382e-01  8.3174958011240960e-02  6.6332224108021531e-02  -1.0217819679269072e-01  -1.2389170102622077e-01  -7.3383069127494524e-02  -2.6730767629137567e-02  5.6185898193161247e-03  -1.4629690171461342e-02  -4.4797855357296072e-02  -1.5713377701554700e-02  4.3092082884243956e-03  -2.8190063729617850e-02  -7.4790261226849050e-02  -1.2517499883226280e-01  -1.0321256824154065e-01  6.5546985390246004e-02  8.2605942983544164e-02  1.3010847949917242e-01  4.4461314235872379e-02  1.4919122021298864e-02  -5.7380796004360179e-01  -6.1074810784115363e-01  -8.3319312046298832e-01  -1.0566497706216573e+00  -9.7295408234037817e-01  -8.3818300203856377e-01  -7.4212109796951731e-01  -6.7434111277699338e-01  -6.8712149348270657e-01  -1.2978646669066446e-01  5.7346313489266565e-01  6.9613883395259857e-01  8.1583343954639731e-01  9.3788067623864413e-01  1.0784299512104154e+00  1.0289481224360308e+00  8.2303619048354026e-01  5.5445411500735697e-01  6.8729723782616992e-01  1.4919122021298864e-02  -4.6907074232462667e-03  -6.9653556628332958e-01  -2.1967925957473192e-01  -9.4114645440987243e-02  -7.9660134222564905e-02  -6.7159679292251681e-02  -4.8037338295061925e-02  -7.7454370012519369e-02  -6.4166464729655356e-02  -5.5512921969417961e-01  -8.2082189574284203e-02  6.1027081989189391e-01  2.1942914399718322e-01  1.3578143882956489e-01  9.3802929217615988e-02  9.1044789605422866e-02  5.5258166249098017e-02  3.5368441947754771e-02  6.3346579940972550e-02  6.7403648336286004e-01  -4.6907074232462667e-03  2.8466713400808339e-02  -8.1639782576948117e-01  -1.3606359004357446e-01  -9.0103086827341070e-02  -9.9937437175795216e-02  -1.1980882289335913e-01  -1.1413163399742994e-01  -1.2032579578431525e-01  -3.5805504678425547e-02  -8.2378972669484984e-01  -6.4075153670864540e-02  8.3228159344236219e-01  9.3644683311544463e-02  9.0124504764224789e-02  1.1119307368454351e-01  1.1065070473511118e-01  1.0345214898844503e-01  1.2049970733227823e-01  7.6874385724197344e-02  7.4161276946867061e-01  2.8466713400808339e-02  7.5841080132231134e-02  -9.3847061690706779e-01  -9.4092128084227178e-02  -1.1112887504606198e-01  -9.9828845699737476e-02  -1.0683946960236709e-01  -1.0028813301599483e-01  -1.0321326122108723e-01  -5.5864018827982781e-02  -1.0296879881876559e+00  1.0525337554810149e-01  1.0555611425220282e+00  7.9136236248897415e-02  1.0009845417649960e-01  9.9828061175959812e-02  8.1357867776556347e-02  1.0051559551834295e-01  1.1419377324800713e-01  4.7400020171220331e-02  8.3737180563302238e-01  7.5841080132231134e-02  1.2697899303887664e-01  -1.0788410454307602e+00  -9.1561215530915702e-02  -1.1042182640684463e-01  -8.1303999989090811e-02  -8.3804213333862537e-02  -8.1210637579084241e-02  -1.1041180524908727e-01  -9.1596918888194531e-02  -1.0788197471511716e+00  1.2701730981323045e-01  9.7197056349574573e-01  6.6729183923523575e-02  1.1989765160172608e-01  1.0689486598001291e-01  8.3831329788657941e-02  1.0690511935773948e-01  1.1981696151308967e-01  6.6599723563736127e-02  9.7187708396536010e-01  1.2697899303887664e-01  1.0513742955091747e-01  -1.0289973920333979e+00  -5.5704225992633645e-02  -1.0325035815973174e-01  -1.0060165943834615e-01  -1.0697318111140108e-01  -9.9810065978068907e-02  -1.1103037108023854e-01  -9.4239648980321805e-02  -9.3812485060147388e-01  7.6232436502669795e-02  8.3740021780728413e-01  4.7646452270861984e-02  1.1434527043816894e-01  1.0056051014249175e-01  8.1372590645940435e-02  9.9907222711959232e-02  1.0009186069875858e-01  7.9123240506406775e-02  1.0551150827847944e+00  1.0513742955091747e-01  -6.4460852349403741e-02  -8.2289552501036800e-01  -3.5540245378489321e-02  -1.2023268276221898e-01  -1.1406471389753892e-01  -1.1957402193853051e-01  -9.9740130344769903e-02  -8.9823613159805166e-02  -1.3614618053049629e-01  -8.1607015699586960e-01  2.9122737751721486e-02  7.4143862286735396e-01  7.6879777062374213e-02  1.2035762932728913e-01  1.0336200474402636e-01  1.1064148263512250e-01  1.1122778092551357e-01  9.0104096491747235e-02  9.3714127526173405e-02  8.3166405205633254e-01  -6.4460852349403741e-02  -8.2306330826455401e-02  -5.5463163059260578e-01  -6.4183452248986861e-02  -7.7478132396536378e-02  -4.8038510079478861e-02  -6.7182732505079945e-02  -7.9583520464843238e-02  -9.3992162762629353e-02  -2.1990371585188997e-01  -6.9618999711211360e-01  -3.8672690038017996e-03  6.7391535224981136e-01  6.3807061499854226e-02  3.5756693298783920e-02  5.5622507525615844e-02  9.1326737679588418e-02  9.3955094796619509e-02  1.3596036737821884e-01  2.1967443895229999e-01  6.1007196793433716e-01  -8.2306330826455401e-02  -1.3005706482083004e-01  -6.8704179907154861e-01  -6.7418819376222727e-01  -7.4199117851600416e-01  -8.3813017619264540e-01  -9.7297636650055763e-01  -1.0563439911027652e+00  -8.3252480190006906e-01  -6.1039733034721799e-01  -5.7338790220614289e-01  1.5459435762359790e-02  6.8681728061060887e-01  5.5477475603508086e-01  8.2343837366298567e-01  1.0292937208761483e+00  1.0786170980968328e+00  9.3794935716432870e-01  8.1589735985023892e-01  6.9611776006563009e-01  5.7331188101022412e-01  -1.3005706482083004e-01  -4.5068657014267807e-02  -1.4493010875517562e-02  5.7802473505605533e-03  -2.6768291602616422e-02  -7.3653589641536690e-02  -1.2431184615237513e-01  -1.0264525028798754e-01  6.5787175859302258e-02  8.2562740027962198e-02  1.2978990781667446e-01  4.4158301874792701e-02  1.2906925576275513e-01  8.1747545581873485e-02  6.4625823868708784e-02  -1.0395036427060533e-01  -1.2566353805820735e-01  -7.5089042240980716e-02  -2.8436074073116161e-02  4.0337667523823156e-03  -1.6152474773689852e-02  -4.5068657014267807e-02  -1.3131203080439294e-01  5.7329220499664835e-01  6.9601592927507994e-01  8.1580178322604846e-01  9.3788978873147666e-01  1.0783574456771523e+00  1.0287704589806983e+00  8.2286284099540219e-01  5.5445773781713870e-01  6.8667693915297212e-01  1.4756219187120844e-02  -5.7391386681868028e-01  -6.1020192421406882e-01  -8.3202487888143772e-01  -1.0557460521394126e+00  -9.7262040400923877e-01  -8.3798804719160735e-01  -7.4202258107605723e-01  -6.7415624005807573e-01  -6.8758499211253998e-01  -1.3131203080439294e-01  -8.4174729338558504e-02  6.1046349582893655e-01  2.1959637163093113e-01  1.3554828574045052e-01  9.3646745569808384e-02  9.1043637921205803e-02  5.5479668321253402e-02  3.5667271067370152e-02  6.3932822805891312e-02  6.7381647816969237e-01  -4.6222740865607724e-03  -6.9633856613445977e-01  -2.1918787219634014e-01  -9.3534782213710713e-02  -7.9026188625277966e-02  -6.6686340150387227e-02  -4.7572536155457139e-02  -7.7130931132372293e-02  -6.3182670857800008e-02  -5.5410709013704218e-01  -8.4174729338558504e-02  -6.6975121804877677e-02  8.3296600270803267e-01  9.4175515747380215e-02  9.0033783937504372e-02  1.1127297947476651e-01  1.1071107095938797e-01  1.0346543105177904e-01  1.2035123125510767e-01  7.7051203658500891e-02  7.4131620564944267e-01  2.8322994514463039e-02  -8.1625359512673235e-01  -1.3576920372508289e-01  -8.9951897628194749e-02  -9.9804731019746837e-02  -1.1954976161051148e-01  -1.1407035946262015e-01  -1.2053654283875911e-01  -3.5042547379035408e-02  -8.2271514363901077e-01  -6.6975121804877677e-02  1.0266519175950267e-01  1.0563643942201280e+00  7.9519199594743489e-02  9.9917023480037614e-02  9.9974015801999050e-02  8.1370908764778344e-02  1.0066741756701728e-01  1.1431023624798610e-01  4.7749917793187699e-02  8.3736196639233729e-01  7.5324692624558959e-02  -9.3828718187970284e-01  -9.3747654048920520e-02  -1.1100638801939089e-01  -9.9687787676483675e-02  -1.0677216100108708e-01  -1.0046943482664857e-01  -1.0346763121529812e-01  -5.4795804175850303e-02  -1.0287645090549054e+00  1.0266519175950267e-01  1.2533250376714519e-01  9.7258355011029685e-01  6.6823358559755741e-02  1.1984228773040863e-01  1.0694620580185010e-01  8.3871283012435557e-02  1.0706960250813911e-01  1.1985760617427056e-01  6.7137092582013988e-02  9.7221820386606761e-01  1.2568996977857200e-01  -1.0783883792064077e+00  -9.0925453379928134e-02  -1.1050442270073374e-01  -8.1237447690216888e-02  -8.3735392810557849e-02  -8.1306975392774788e-02  -1.1055734624370608e-01  -9.0664710940085172e-02  -1.0784574945116829e+00  1.2533250376714519e-01  7.5152303560824169e-02  8.3764353268954839e-01  4.7636062192265682e-02  1.1427500807280021e-01  1.0051504789064596e-01  8.1396067399563996e-02  1.0006129231758509e-01  1.0001530921620472e-01  7.9948337269987513e-02  1.0559991303778915e+00  1.0298893015874644e-01  -1.0283902445666990e+00  -5.5027679221830078e-02  -1.0347011806303109e-01  -1.0043046797178798e-01  -1.0678365046352484e-01  -9.9800288652616753e-02  -1.1111094071854272e-01  -9.3522212517861261e-02  -9.3810822238648039e-01  7.5152303560824169e-02  2.8402852595834496e-02  7.4160952529997304e-01  7.6919235004996769e-02  1.2039628476597289e-01  1.0332062193026559e-01  1.1062011002353540e-01  1.1143298670019813e-01  9.0275001155973589e-02  9.4465290902633864e-02  8.3257428314712845e-01  -6.6868763685020038e-02  -8.2233640389090334e-01  -3.5320757521190245e-02  -1.2057370604804533e-01  -1.1409002123287286e-01  -1.1964531042773548e-01  -9.9917840637943026e-02  -8.9976146728060091e-02  -1.3568342614948692e-01  -8.1615900023032772e-01  2.8402852595834496e-02  -4.3315489454310062e-03  6.7402046655783687e-01  6.3526829023777473e-02  3.5684980756165399e-02  5.5443346622669108e-02  9.1115514337231612e-02  9.3948536575194821e-02  1.3588932105834836e-01  2.1975734986713086e-01  6.1012163098395145e-01  -8.4141921852834395e-02  -5.5401378026807435e-01  -6.3551810585428484e-02  -7.7348291958139331e-02  -4.7827708697198976e-02  -6.6890780711542946e-02  -7.9231553171403762e-02  -9.3708081590207756e-02  -2.1942908247061749e-01  -6.9638673724201583e-01  -4.3315489454310062e-03  1.5301280216728226e-02  6.8717372528077869e-01  5.5456277346817329e-01  8.2330522181890808e-01  1.0289937653977188e+00  1.0782640875134972e+00  9.3759677485029724e-01  8.1554054388949360e-01  6.9584122652800795e-01  5.7305980328295103e-01  -1.3123177171835929e-01  -6.8744785812096321e-01  -6.7418621204033946e-01  -7.4200248820615389e-01  -8.3807259059397554e-01  -9.7278174249745397e-01  -1.0560504898313652e+00  -8.3235674400771575e-01  -6.1037449844351843e-01  -5.7369631544545874e-01  1.5301280216728226e-02  4.4461314235872379e-02  1.3022963898624382e-01  8.3174958011240960e-02  6.6332224108021531e-02  -1.0217819679269072e-01  -1.2389170102622077e-01  -7.3383069127494524e-02  -2.6730767629137567e-02  5.6185898193161247e-03  -1.4629690171461342e-02  -4.4797855357296072e-02  -1.5713377701554700e-02  4.3092082884243956e-03  -2.8190063729617850e-02  -7.4790261226849050e-02  -1.2517499883226280e-01  -1.0321256824154065e-01  6.5546985390246004e-02  8.2605942983544164e-02  1.3010847949917242e-01  4.4461314235872379e-02  1.6332733057548850e-02  9.5614082274889878e-02  8.7276911919907468e-02  1.4828007084141465e-01  2.8352595156076188e-02  -1.1797793750587615e-01  -1.8133581111990060e-01  -1.7419207245840601e-01  -1.5972574754655688e-01  -8.9302171316681445e-02  -1.6608230476752028e-02  6.8708016507310607e-02  1.4997772219131814e-01  1.4280719981917908e-01  6.6854580058854515e-02  -1.3378530205330591e-01  -2.4746744624680911e-01  -1.0615637965402763e-01  2.2921003152182313e-03  1.4445235270823964e-01  1.6332733057548850e-02  -6.9696507972985086e-02  -3.8127240303032428e-01  -3.8573644898691922e-01  -7.4028746691077607e-01  -1.0341686041170142e+00  -9.4845223543625934e-01  -7.7795927324808256e-01  -6.0797588718318940e-01  -6.2955256771603363e-01  -5.7349061459937811e-01  -9.5347196138865373e-02  3.8120812850365349e-01  4.8659435064098233e-01  5.9229635985583906e-01  7.5212778325276830e-01  9.7246754130999569e-01  9.7234737437143481e-01  7.7867038022333068e-01  4.3009655062797286e-01  6.2798532147298158e-01  -6.9696507972985086e-02  -1.5066659091243081e-01  -4.8685577761657245e-01  -1.6397151184086886e-01  -2.2206519307369355e-01  -1.9892240452024523e-01  -1.5677219637679729e-01  -1.6302986284017748e-01  -8.5380353233329542e-02  -1.6309590742231014e-01  -4.6439692092739920e-01  -8.6481964665849495e-02  3.8548181495807049e-01  1.6348265574257076e-01  2.4797081075687736e-02  9.7065417427031550e-02  1.4066585111589242e-01  1.8314293854831670e-01  6.3587687295601797e-02  -8.6714231056088081e-02  6.5009686824627810e-01  -1.5066659091243081e-01  -1.4293523161095825e-01  -5.9291659234652749e-01  -2.5088098638671563e-02  -5.2557993887907349e-02  -1.7359492123940948e-01  -2.7081211654931220e-01  -2.3982638912782886e-01  -1.3280785095741074e-01  -1.4571897116427576e-01  -7.5430920322708928e-01  -1.4646371778725381e-01  7.4007823139611284e-01  2.2126034202833519e-01  5.2337321915985176e-02  2.2476104912789793e-01  2.3746721508868093e-01  1.0387364400183230e-01  4.2081855023923274e-02  -4.9069928670435164e-02  7.3745089009028764e-01  -1.4293523161095825e-01  -6.6210329663804537e-02  -7.5302200631453464e-01  -9.7226879805387703e-02  -2.2455114821297628e-01  -2.5317750581104526e-01  -2.7207451741623795e-01  -2.4473797796707175e-01  -1.6452712907053793e-01  -3.8454172128373314e-02  -9.9683302742838564e-01  -2.5669518271609629e-02  1.0338877135486952e+00  1.9791346419905947e-01  1.7350337636259547e-01  2.5332222107542945e-01  2.9957324243013811e-01  3.6145216001386998e-01  2.9396887187422366e-01  9.6646153603500255e-03  7.8348039948482950e-01  -6.6210329663804537e-02  1.3505576705963551e-01  -9.7317420346831240e-01  -1.4107969904950224e-01  -2.3710114853714542e-01  -2.9930805496722046e-01  -3.9432078712290686e-01  -4.0702010403343292e-01  -2.4768883320853485e-01  5.7433065792785289e-03  -1.1088581506216462e+00  1.2101465471547766e-01  9.4792307663185849e-01  1.5615397955752996e-01  2.7094453069740526e-01  2.7229934413074364e-01  3.9422723505227114e-01  5.1371890947894738e-01  2.5190676733868095e-01  4.8107224436761069e-02  8.8587237808071539e-01  1.3505576705963551e-01  2.4884052384232183e-01  -9.7224924198562301e-01  -1.8387414790508610e-01  -1.0323377348953550e-01  -3.6124196973350020e-01  -5.1386202075832954e-01  -3.4536890951199284e-01  -1.7999101850703628e-01  -1.2288897503932880e-02  -1.0348828992358940e+00  1.8412929725644764e-01  7.7698943821838162e-01  1.6259442130733934e-01  2.3993680388048702e-01  2.4477879688078155e-01  4.0658762507617746e-01  3.4539292402066313e-01  5.6054263082599733e-02  1.1797925978435646e-01  9.2865122288995006e-01  2.4884052384232183e-01  1.0691199176826748e-01  -7.7832311669547649e-01  -6.4031534095733547e-02  -4.1569378159936943e-02  -2.9352670884213222e-01  -2.5162741169379127e-01  -5.5747765526171382e-02  -2.8560260813277463e-02  -3.7372019751220217e-02  -8.7126404909925304e-01  1.7675604129220857e-01  6.0702651897601112e-01  8.4942086811062495e-02  1.3281031784723504e-01  1.6433370665683417e-01  2.4757358381902642e-01  1.8042512904051042e-01  2.8899867515532189e-02  1.6620558528700441e-01  7.4957544558540601e-01  1.0691199176826748e-01  -2.1637309993015356e-03  -4.3006209173240773e-01  8.6276568354272040e-02  4.9102612714982070e-02  -9.4153613483635972e-03  -4.8244649787277237e-02  -1.1824380424940288e-01  -1.6623555740134985e-01  -2.3441408247044096e-01  -6.9669745619659840e-01  1.6196165790676867e-01  6.2922668317625308e-01  1.6310028917481900e-01  1.4600478898988783e-01  3.8504765506811277e-02  -5.8081410261624847e-03  1.2315754264967211e-02  3.7356114568670946e-02  2.3438366914275727e-01  5.5080946581813828e-01  -2.1637309993015356e-03  -1.4460186757291169e-01  -6.2815760143749211e-01  -6.5054859328339720e-01  -7.3816031797100923e-01  -7.8429932505111388e-01  -8.8684706261286883e-01  -9.2959836866765155e-01  -7.5013507053950235e-01  -5.5095534475108421e-01  -5.0778852323670864e-01  9.0327558539901612e-02  5.7313884002780546e-01  4.6401457470493795e-01  7.5379004587810539e-01  9.9623831592430800e-01  1.1084230736957963e+00  1.0347060525986145e+00  8.7135197601542191e-01  6.9690539430993348e-01  5.0791567339251209e-01  -1.4460186757291169e-01  -1.7067998646958057e-02  6.9716755166852926e-02  1.5134687498183819e-01  1.4424059608737200e-01  6.7986684513393653e-02  -1.3302247707484963e-01  -2.4702579561811192e-01  -1.0594917763627082e-01  2.2882883918083382e-03  1.4422974674757250e-01  1.5885792537857810e-02  9.4668070703092452e-02  8.6145566263887932e-02  1.4677130283285383e-01  2.6783101993237947e-02  -1.1951732388064064e-01  -1.8284868806850366e-01  -1.7587321165225125e-01  -1.6154322554706016e-01  -9.0994231679606533e-02  -1.7067998646958057e-02  -9.6319844809556507e-02  3.8099124991485583e-01  4.8649053180009311e-01  5.9226702010888987e-01  7.5221160317665003e-01  9.7261570637029138e-01  9.7224046748834458e-01  7.7847730714578056e-01  4.3008866485309899e-01  6.2766225140874121e-01  -7.0160473514355073e-02  -3.8152577831337292e-01  -3.8545416553466072e-01  -7.3963828637793416e-01  -1.0339078059513649e+00  -9.4840229755175554e-01  -7.7773196752571117e-01  -6.0771300286349716e-01  -6.2924860464178489e-01  -5.7398441736844852e-01  -9.6319844809556507e-02  -8.7803044247548478e-02  3.8568947167723128e-01  1.6389088331134116e-01  2.4882335450482553e-02  9.6984217544546281e-02  1.4073036547995882e-01  1.8348978896310100e-01  6.4081388807726902e-02  -8.6099809780030193e-02  6.5026844350657032e-01  -1.5093489380885156e-01  -4.8678330919060381e-01  -1.6347094403374407e-01  -2.2122848419875685e-01  -1.9800889925755644e-01  -1.5624214999283542e-01  -1.6277499812220092e-01  -8.5138196354084511e-02  -1.6209407347500981e-01  -4.6389822678219672e-01  -8.7803044247548478e-02  -1.4874250293108979e-01  7.4045858562844147e-01  2.2181462830925275e-01  5.2271902531762372e-02  2.2446168455716414e-01  2.3710783478903191e-01  1.0368710604315308e-01  4.1886996450029225e-02  -4.9091484939047011e-02  7.3768048751276116e-01  -1.4330465559716021e-01  -5.9281456829040657e-01  -2.4971050243796113e-02  -5.2159598153484803e-02  -1.7315684348511792e-01  -2.7100661110163449e-01  -2.4008460966749276e-01  -1.3320440741936745e-01  -1.4483807901870546e-01  -7.5356085801054451e-01  -1.4874250293108979e-01  -2.8002247362108493e-02  1.0346216795737966e+00  1.9836475980743981e-01  1.7328144224162195e-01  2.5297269012430867e-01  2.9929340510334251e-01  3.6116126206579519e-01  2.9366354593839233e-01  9.4985100091796656e-03  7.8379546212383444e-01  -6.6747960170507631e-02  -7.5281729348166715e-01  -9.7045801573414289e-02  -2.2443939956497669e-01  -2.5302266262800160e-01  -2.7215020904723591e-01  -2.4478047809458400e-01  -1.6482305103401340e-01  -3.7507929769782962e-02  -9.9574217313722835e-01  -2.8002247362108493e-02  1.1926659416110923e-01  9.4863653156961147e-01  1.5613934309842775e-01  2.7070058064737396e-01  2.7213186112243326e-01  3.9411902900988977e-01  5.1387539326610643e-01  2.5176268232009497e-01  4.8435821663232216e-02  8.8628504880805026e-01  1.3408951274288125e-01  -9.7288452988031116e-01  -1.4061130625509141e-01  -2.3688829647033069e-01  -2.9927740248280743e-01  -3.9389736641588174e-01  -4.0652515155992391e-01  -2.4766779628953828e-01  6.2632850213087329e-03  -1.1081737003958438e+00  1.1926659416110923e-01  1.8298721367867846e-01  7.7754517723633987e-01  1.6247160208608080e-01  2.3999107962476188e-01  2.4483364402050214e-01  4.0701954527152262e-01  3.4536697709650604e-01  5.6067094568667826e-02  1.1862781270292780e-01  9.2929764032770679e-01  2.4725708487024720e-01  -9.7209909900243041e-01  -1.8302805577042991e-01  -1.0355901951687811e-01  -3.6102192510764736e-01  -5.1328114024696359e-01  -3.4509106235623993e-01  -1.8005806628253757e-01  -1.2110240526519468e-02  -1.0347920806733060e+00  1.8298721367867846e-01  1.7598244966201429e-01  6.0746001870955013e-01  8.4970784114298731e-02  1.3292086895534083e-01  1.6466738748827814e-01  2.4785632941210328e-01  1.8035308807042943e-01  2.8932599042267651e-02  1.6680785089623928e-01  7.5013019055032293e-01  1.0516304045580077e-01  -7.7842641878944785e-01  -6.3327698155395976e-02  -4.2189913483512885e-02  -2.933066271678