<?xml version="1.0"?>
<VTKFile type="UnstructuredGrid"  version="0.1"  >
<UnstructuredGrid>
<Piece  NumberOfPoints="2197" NumberOfCells="10368">
<Points>
<DataArray  type="Float64"  NumberOfComponents="3"  format="ascii">-3.141592653589793 -3.141592653589793 -3.141592653589793  -2.617993877991494 -3.141592653589793 -3.141592653589793  -2.094395102393196 -3.141592653589793 -3.141592653589793  -1.570796326794897 -3.141592653589793 -3.141592653589793  -1.047197551196598 -3.141592653589793 -3.141592653589793  -0.5235987755982987 -3.141592653589793 -3.141592653589793  0 -3.141592653589793 -3.141592653589793  0.5235987755982987 -3.141592653589793 -3.141592653589793  1.047197551196597 -3.141592653589793 -3.141592653589793  1.570796326794897 -3.141592653589793 -3.141592653589793  2.094395102393196 -3.141592653589793 -3.141592653589793  2.617993877991494 -3.141592653589793 -3.141592653589793  3.141592653589793 -3.141592653589793 -3.141592653589793  -3.141592653589793 -2.617993877991494 -3.141592653589793  -2.617993877991494 -2.617993877991494 -3.141592653589793  -2.094395102393196 -2.617993877991494 -3.141592653589793  -1.570796326794897 -2.617993877991494 -3.141592653589793  -1.047197551196598 -2.617993877991494 -3.141592653589793  -0.5235987755982987 -2.617993877991494 -3.141592653589793  0 -2.617993877991494 -3.141592653589793  0.5235987755982987 -2.617993877991494 -3.141592653589793  1.047197551196597 -2.617993877991494 -3.141592653589793  1.570796326794897 -2.617993877991494 -3.141592653589793  2.094395102393196 -2.617993877991494 -3.141592653589793  2.617993877991494 -2.617993877991494 -3.141592653589793  3.141592653589793 -2.617993877991494 -3.141592653589793  -3.141592653589793 -2.094395102393196 -3.141592653589793  -2.617993877991494 -2.094395102393196 -3.141592653589793  -2.094395102393196 -2.094395102393196 -3.141592653589793  -1.570796326794897 -2.094395102393196 -3.141592653589793  -1.047197551196598 -2.094395102393196 -3.141592653589793  -0.5235987755982987 -2.094395102393196 -3.141592653589793  0 -2.094395102393196 -3.141592653589793  0.5235987755982987 -2.094395102393196 -3.141592653589793  1.047197551196597 -2.094395102393196 -3.141592653589793  1.570796326794897 -2.094395102393196 -3.141592653589793  2.094395102393196 -2.094395102393196 -3.141592653589793  2.617993877991494 -2.094395102393196 -3.141592653589793  3.141592653589793 -2.094395102393196 -3.141592653589793  -3.141592653589793 -1.570796326794897 -3.141592653589793  -2.617993877991494 -1.570796326794897 -3.141592653589793  -2.094395102393196 -1.570796326794897 -3.141592653589793  -1.570796326794897 -1.570796326794897 -3.141592653589793  -1.047197551196598 -1.570796326794897 -3.141592653589793  -0.5235987755982987 -1.570796326794897 -3.141592653589793  0 -1.570796326794897 -3.141592653589793  0.5235987755982987 -1.570796326794897 -3.141592653589793  1.047197551196597 -1.570796326794897 -3.141592653589793  1.570796326794897 -1.570796326794897 -3.141592653589793  2.094395102393196 -1.570796326794897 -3.141592653589793  2.617993877991494 -1.570796326794897 -3.141592653589793  3.141592653589793 -1.570796326794897 -3.141592653589793  -3.141592653589793 -1.047197551196598 -3.141592653589793  -2.617993877991494 -1.047197551196598 -3.141592653589793  -2.094395102393196 -1.047197551196598 -3.141592653589793  -1.570796326794897 -1.047197551196598 -3.141592653589793  -1.047197551196598 -1.047197551196598 -3.141592653589793  -0.5235987755982987 -1.047197551196598 -3.141592653589793  0 -1.047197551196598 -3.141592653589793  0.5235987755982987 -1.047197551196598 -3.141592653589793  1.047197551196597 -1.047197551196598 -3.141592653589793  1.570796326794897 -1.047197551196598 -3.141592653589793  2.094395102393196 -1.047197551196598 -3.141592653589793  2.617993877991494 -1.047197551196598 -3.141592653589793  3.141592653589793 -1.047197551196598 -3.141592653589793  -3.141592653589793 -0.5235987755982987 -3.141592653589793  -2.617993877991494 -0.5235987755982987 -3.141592653589793  -2.094395102393196 -0.5235987755982987 -3.141592653589793  -1.570796326794897 -0.5235987755982987 -3.141592653589793  -1.047197551196598 -0.5235987755982987 -3.141592653589793  -0.5235987755982987 -0.5235987755982987 -3.141592653589793  0 -0.5235987755982987 -3.141592653589793  0.5235987755982987 -0.5235987755982987 -3.141592653589793  1.047197551196597 -0.5235987755982987 -3.141592653589793  1.570796326794897 -0.5235987755982987 -3.141592653589793  2.094395102393196 -0.5235987755982987 -3.141592653589793  2.617993877991494 -0.5235987755982987 -3.141592653589793  3.141592653589793 -0.5235987755982987 -3.141592653589793  -3.141592653589793 0 -3.141592653589793  -2.617993877991494 0 -3.141592653589793  -2.094395102393196 0 -3.141592653589793  -1.570796326794897 0 -3.141592653589793  -1.047197551196598 0 -3.141592653589793  -0.5235987755982987 0 -3.141592653589793  0 0 -3.141592653589793  0.5235987755982987 0 -3.141592653589793  1.047197551196597 0 -3.141592653589793  1.570796326794897 0 -3.141592653589793  2.094395102393196 0 -3.141592653589793  2.617993877991494 0 -3.141592653589793  3.141592653589793 0 -3.141592653589793  -3.141592653589793 0.5235987755982987 -3.141592653589793  -2.617993877991494 0.5235987755982987 -3.141592653589793  -2.094395102393196 0.5235987755982987 -3.141592653589793  -1.570796326794897 0.5235987755982987 -3.141592653589793  -1.047197551196598 0.5235987755982987 -3.141592653589793  -0.5235987755982987 0.5235987755982987 -3.141592653589793  0 0.5235987755982987 -3.141592653589793  0.5235987755982987 0.5235987755982987 -3.141592653589793  1.047197551196597 0.5235987755982987 -3.141592653589793  1.570796326794897 0.5235987755982987 -3.141592653589793  2.094395102393196 0.5235987755982987 -3.141592653589793  2.617993877991494 0.5235987755982987 -3.141592653589793  3.141592653589793 0.5235987755982987 -3.141592653589793  -3.141592653589793 1.047197551196597 -3.141592653589793  -2.617993877991494 1.047197551196597 -3.141592653589793  -2.094395102393196 1.047197551196597 -3.141592653589793  -1.570796326794897 1.047197551196597 -3.141592653589793  -1.047197551196598 1.047197551196597 -3.141592653589793  -0.5235987755982987 1.047197551196597 -3.141592653589793  0 1.047197551196597 -3.141592653589793  0.5235987755982987 1.047197551196597 -3.141592653589793  1.047197551196597 1.047197551196597 -3.141592653589793  1.570796326794897 1.047197551196597 -3.141592653589793  2.094395102393196 1.047197551196597 -3.141592653589793  2.617993877991494 1.047197551196597 -3.141592653589793  3.141592653589793 1.047197551196597 -3.141592653589793  -3.141592653589793 1.570796326794897 -3.141592653589793  -2.617993877991494 1.570796326794897 -3.141592653589793  -2.094395102393196 1.570796326794897 -3.141592653589793  -1.570796326794897 1.570796326794897 -3.141592653589793  -1.047197551196598 1.570796326794897 -3.141592653589793  -0.5235987755982987 1.570796326794897 -3.141592653589793  0 1.570796326794897 -3.141592653589793  0.5235987755982987 1.570796326794897 -3.141592653589793  1.047197551196597 1.570796326794897 -3.141592653589793  1.570796326794897 1.570796326794897 -3.141592653589793  2.094395102393196 1.570796326794897 -3.141592653589793  2.617993877991494 1.570796326794897 -3.141592653589793  3.141592653589793 1.570796326794897 -3.141592653589793  -3.141592653589793 2.094395102393196 -3.141592653589793  -2.617993877991494 2.094395102393196 -3.141592653589793  -2.094395102393196 2.094395102393196 -3.141592653589793  -1.570796326794897 2.094395102393196 -3.141592653589793  -1.047197551196598 2.094395102393196 -3.141592653589793  -0.5235987755982987 2.094395102393196 -3.141592653589793  0 2.094395102393196 -3.141592653589793  0.5235987755982987 2.094395102393196 -3.141592653589793  1.047197551196597 2.094395102393196 -3.141592653589793  1.570796326794897 2.094395102393196 -3.141592653589793  2.094395102393196 2.094395102393196 -3.141592653589793  2.617993877991494 2.094395102393196 -3.141592653589793  3.141592653589793 2.094395102393196 -3.141592653589793  -3.141592653589793 2.617993877991494 -3.141592653589793  -2.617993877991494 2.617993877991494 -3.141592653589793  -2.094395102393196 2.617993877991494 -3.141592653589793  -1.570796326794897 2.617993877991494 -3.141592653589793  -1.047197551196598 2.617993877991494 -3.141592653589793  -0.5235987755982987 2.617993877991494 -3.141592653589793  0 2.617993877991494 -3.141592653589793  0.5235987755982987 2.617993877991494 -3.141592653589793  1.047197551196597 2.617993877991494 -3.141592653589793  1.570796326794897 2.617993877991494 -3.141592653589793  2.094395102393196 2.617993877991494 -3.141592653589793  2.617993877991494 2.617993877991494 -3.141592653589793  3.141592653589793 2.617993877991494 -3.141592653589793  -3.141592653589793 3.141592653589793 -3.141592653589793  -2.617993877991494 3.141592653589793 -3.141592653589793  -2.094395102393196 3.141592653589793 -3.141592653589793  -1.570796326794897 3.141592653589793 -3.141592653589793  -1.047197551196598 3.141592653589793 -3.141592653589793  -0.5235987755982987 3.141592653589793 -3.141592653589793  0 3.141592653589793 -3.141592653589793  0.5235987755982987 3.141592653589793 -3.141592653589793  1.047197551196597 3.141592653589793 -3.141592653589793  1.570796326794897 3.141592653589793 -3.141592653589793  2.094395102393196 3.141592653589793 -3.141592653589793  2.617993877991494 3.141592653589793 -3.141592653589793  3.141592653589793 3.141592653589793 -3.141592653589793  -3.141592653589793 -3.141592653589793 -2.617993877991494  -2.617993877991494 -3.141592653589793 -2.617993877991494  -2.094395102393196 -3.141592653589793 -2.617993877991494  -1.570796326794897 -3.141592653589793 -2.617993877991494  -1.047197551196598 -3.141592653589793 -2.617993877991494  -0.5235987755982987 -3.141592653589793 -2.617993877991494  0 -3.141592653589793 -2.617993877991494  0.5235987755982987 -3.141592653589793 -2.617993877991494  1.047197551196597 -3.141592653589793 -2.617993877991494  1.570796326794897 
[...]
<PointData  Scalars="f_258504"> 
<DataArray  type="Float64"  Name="f_258504"  format="ascii">5.9811757866356507e-02  6.6351899193185654e-02  -2.7350947671133236e-02  7.5290939213106412e-03  -1.9142136920831871e-03  -3.6941764422394274e-02  -7.0051081463637685e-02  -3.5871878217629966e-02  -1.2821189406364352e-02  1.8829166598647151e-03  -3.5450834727106202e-02  5.4297064724377203e-02  5.9811757866356507e-02  4.8299020577165924e-02  -7.0802761846992912e-01  -1.0319907149970062e+00  -1.1916113758907039e+00  -1.0257181279455014e+00  -8.5842084690346321e-01  -5.8800428336871366e-02  6.9441526043113255e-01  1.1549973756411234e+00  1.1512870915920383e+00  9.5911264514692374e-01  8.4698708400254863e-01  4.8299020577165924e-02  7.8972909784809538e-03  -1.1583662100162173e+00  -1.4019388265345571e+00  -1.2615317080834147e+00  -1.6073486741600407e+00  -9.5522045698937030e-01  3.3337373354113034e-02  1.0200223494617191e+00  1.4091950764314831e+00  1.3161091380129184e+00  1.6146910723470049e+00  1.0200195287654303e+00  7.8972909784809538e-03  -1.2556078065332732e-02  -1.1409166205564072e+00  -1.3293745019011560e+00  -1.7845846463719270e+00  -1.3168298054797754e+00  -1.1473923369982941e+00  -9.9359336333602628e-03  1.1981439876009126e+00  1.2622097945357460e+00  1.7703981077043041e+00  1.2581210298434209e+00  1.1961520389788471e+00  -1.2556078065332732e-02  3.1268880957740781e-02  -9.5363618671296735e-01  -1.6185294906566452e+00  -1.2592917508851884e+00  -1.4031678114793373e+00  -1.1597746727931981e+00  1.0359259362401244e-02  1.0311509596138098e+00  1.6149922676776167e+00  1.3071019176272514e+00  1.4018785621425307e+00  1.0174020441621681e+00  3.1268880957740781e-02  -5.4131804582712925e-02  -8.6548698309934402e-01  -1.0180690833380648e+00  -1.1975989944232341e+00  -1.0183239856884108e+00  -6.9197378588496217e-01  4.4757589877423350e-02  8.5731900768309832e-01  9.5574816176840238e-01  1.1414275017754283e+00  1.1530471703988423e+00  6.9440764491880747e-01  -5.4131804582712925e-02  -4.4869639024195787e-02  -3.9522244820435884e-02  -1.1321937155590737e-02  1.4130977439445394e-02  -2.4030538707009025e-02  5.6005685780321092e-02  5.0300228227937512e-02  5.7391017177474551e-02  -3.2138586305963897e-02  8.3947190567199223e-03  -1.2334862011766534e-02  -5.3718619903276567e-02  -4.4869639024195787e-02  -6.4064419451248716e-02  6.9533619731954444e-01  1.1563512065857668e+00  1.1501955866784939e+00  9.6381287017838768e-01  8.5743049566094187e-01  3.7757182200789240e-02  -6.9235716457262875e-01  -1.0254541743832177e+00  -1.1870573719870141e+00  -1.0236533308120010e+00  -8.4683880494137764e-01  -6.4064419451248716e-02  2.8252549089839266e-02  1.0297746500092761e+00  1.4053785355914461e+00  1.3142602967645303e+00  1.6152815768239337e+00  1.0219072314980384e+00  6.7767691863360032e-03  -1.1612762224198108e+00  -1.4034996557436825e+00  -1.2659026013716084e+00  -1.6095303037322584e+00  -9.5516376697868544e-01  2.8252549089839266e-02  -1.2338974631272575e-02  1.2036140944782945e+00  1.2683123457486849e+00  1.7837084360279196e+00  1.2612643677118747e+00  1.1909692383098309e+00  -1.2592277972204274e-02  -1.1490221138807548e+00  -1.3198676319804454e+00  -1.7790822063907921e+00  -1.3144319338967969e+00  -1.1494672351743893e+00  -1.2338974631272575e-02  1.3489947844331369e-02  1.0244373864554250e+00  1.6150288854287262e+00  1.3101166279298011e+00  1.4088398093919627e+00  1.0146970527111565e+00  2.6003577632243337e-02  -9.6306248511821446e-01  -1.5942604468843418e+00  -1.2669755911314120e+00  -1.4006881979451826e+00  -1.1513662911240929e+00  1.3489947844331369e-02  3.7244423105823141e-02  8.6199083444120173e-01  9.5640960647500595e-01  1.1473755153230487e+00  1.1592360319589954e+00  7.0482321319517749e-01  -6.8131036945896298e-02  -8.4897507972188180e-01  -1.0217037009177952e+00  -1.1898628249174232e+00  -1.0208424350509548e+00  -6.9207159611049773e-01  3.7244423105823141e-02  5.9811757866356507e-02  6.6351899193185654e-02  -2.7350947671133236e-02  7.5290939213106412e-03  -1.9142136920831871e-03  -3.6941764422394274e-02  -7.0051081463637685e-02  -3.5871878217629966e-02  -1.2821189406364352e-02  1.8829166598647151e-03  -3.5450834727106202e-02  5.4297064724377203e-02  5.9811757866356507e-02  5.8514247361392470e-02  1.1267547705363146e-02  -4.3434385970045897e-02  -1.6115908848283837e-03  -6.7569498664889122e-02  -5.7368756710598268e-02  -3.5190303616707733e-02  -9.2197626836780493e-03  1.9510298402776811e-02  -4.7498997528151255e-03  4.4085116415530597e-02  8.9111763099134586e-02  5.8514247361392470e-02  -7.9124296464452189e-03  -6.4149761948209372e-01  -8.9174008013080619e-01  -9.8675847860687271e-01  -9.8682960041871548e-01  -6.7486481225913797e-01  -2.6391663471577620e-02  6.4198217952052949e-01  9.2972551968583328e-01  9.6441898991778952e-01  9.1362414291339822e-01  6.9109578941542904e-01  -7.9124296464452189e-03  -2.5129947913125505e-02  -9.3330913372464408e-01  -1.2056948826542788e+00  -1.3330823195267083e+00  -1.4141287380404888e+00  -7.9981956070420435e-01  4.7620908663256224e-02  8.8684297953819069e-01  1.1984625464850069e+00  1.3683430976801563e+00  1.3902783929450968e+00  8.5623858607518144e-01  -2.5129947913125505e-02  6.6916691937474399e-03  -9.6536585818347687e-01  -1.3694236448061388e+00  -1.5957550677317849e+00  -1.3188014465804963e+00  -9.8166487852924889e-01  7.4867212026643402e-03  9.7512476539239956e-01  1.3340007398152207e+00  1.5947420298829975e+00  1.2475586617824286e+00  1.0190438276773095e+00  6.6916691937474399e-03  -4.4474477022098328e-02  -9.2813637381973624e-01  -1.3855783183698660e+00  -1.2428874369740353e+00  -1.3408862134498076e+00  -1.0224895165453092e+00  7.2807094733408087e-02  9.8171345832703061e-01  1.4002768880569925e+00  1.3074092954879020e+00  1.3291916330350253e+00  8.7596674429784960e-01  -4.4474477022098328e-02  -8.4926987209453256e-02  -6.9695918003667801e-01  -8.5192538169688259e-01  -1.0143751610408875e+00  -8.7494667529805525e-01  -5.1116223481242307e-01  6.0647572084267271e-02  6.7728700692464050e-01  8.0968691620047106e-01  9.8502213669362448e-01  1.0199546965200019e+00  5.1746339144600551e-01  -8.4926987209453256e-02  -5.1844727465459102e-02  -3.1220948338610273e-03  1.8519389383268917e-02  -5.7433317258320212e-03  4.6310383794944350e-02  8.2386416466351101e-02  3.7002383294842636e-02  2.1978458111730076e-02  -4.2845207280280670e-02  -7.1723783575581715e-03  -7.2872985847275792e-02  -5.7058975507420819e-02  -5.1844727465459102e-02  -1.4568347745424294e-02  6.3238479332136421e-01  9.2679382533318400e-01  9.6651123147639451e-01  9.2551652612218072e-01  7.0209643095645324e-01  1.2099830970223331e-02  -6.4334768952126353e-01  -8.8239695380994587e-01  -9.7581110143102601e-01  -9.8142413059077493e-01  -6.7956983872988364e-01  -1.4568347745424294e-02  4.4344720561293419e-02  8.9235513594662852e-01  1.1991930967872373e+00  1.3707750279340349e+00  1.3893370041839601e+00  8.5218335628306641e-01  -3.0653647404414092e-02  -9.2612615828796296e-01  -1.2046073141654237e+00  -1.3333556853265429e+00  -1.3975441902964771e+00  -8.0123391299968172e-01  4.4344720561293419e-02  5.2137773453814944e-03  9.8347780147738062e-01  1.3332951226081329e+00  1.6057300904209846e+00  1.2379902806327097e+00  1.0228694908266434e+00  -1.4364628542154515e-03  -9.6418313713359138e-01  -1.3638144838638688e+00  -1.5990533971496208e+00  -1.3188154235781759e+00  -9.8143749363013211e-01  5.2137773453814944e-03  8.0078982510963473e-02  9.8406522017939924e-01  1.4041987454473395e+00  1.3132415091606544e+00  1.3374340541793597e+00  8.7873657965213736e-01  -5.2560290616914258e-02  -9.2022648193236412e-01  -1.3884888326737750e+00  -1.2512064568897499e+00  -1.3401664567788454e+00  -1.0300670706449071e+00  8.0078982510963473e-02  6.7567195118688972e-02  6.8888040482365009e-01  7.9976200359224703e-01  9.8188484406697962e-01  1.0251699365181290e+00  5.2069949118404257e-01  -7.5208020308099963e-02  -7.0537231014125501e-01  -8.4150486052877771e-01  -1.0031339372157284e+00  -8.7680135194987552e-01  -5.2244257953009743e-01  6.7567195118688972e-02  5.8514247361392470e-02  1.1267547705363146e-02  -4.3434385970045897e-02  -1.6115908848283837e-03  -6.7569498664889122e-02  -5.7368756710598268e-02  -3.5190303616707733e-02  -9.2197626836780493e-03  1.9510298402776811e-02  -4.7498997528151255e-03  4.4085116415530597e-02  8.9111763099134586e-02  5.8514247361392470e-02  1.0908627148468613e-02  2.1515471692455136e-02  -2.4131422168421589e-02  -3.2168422593530227e-02  -5.1403952644250378e-02  -4.4532567121046043e-02  -1.8225280735767478e-02  -1.7174747802001786e-04  3.4620114769424407e-02  1.5059539247879544e-02  4.6171107918666521e-02  5.9375148050052860e-03  1.0908627148468613e-02  1.8379950049148410e-02  -3.4607250147146978e-01  -5.3434417232629294e-01  -6.1918943490569134e-01  -5.9635295415201395e-01  -3.2480020981858609e-01  -1.2401714303742244e-02  3.3480736933099597e-01  5.3845637833392079e-01  6.5613066994783475e-01  5.8166027177419499e-01  3.3785570219425876e-01  1.8379950049148410e-02  -2.3409078165644304e-02  -5.4469161581071002e-01  -8.0510206110082405e-01  -9.7735859592993513e-01  -8.5178266173540984e-01  -4.3684707768699904e-01  1.5316728934865416e-02  5.3740154807736296e-01  8.0881264587847390e-01  9.8030145331818919e-01  8.2439708128872791e-01  4.6873376142433693e-01  -2.3409078165644304e-02  -2.1040803178836061e-02  -6.4974818742510121e-01  -9.8390646173061891e-01  -1.0439943948071759e+00  -9.1648976034107599e-01  -5.3175614470706067e-01  3.4449301347378961e-02  6.2129662069610203e-01  9.7537220522345991e-01  1.0390892643922409e+00  9.1976565847892555e-01  5.6149620563369240e-01  -2.1040803178836061e-02  -5.7116266436177648e-02  -5.7596399053525549e-01  -8.2269072390320119e-01  -9.1833609868881538e-01  -8.2437141732793662e-01  -5.0006732343097271e-01  5.7938208864806440e-02  6.0443802027573978e-01  8.5739201232341700e-01  9.1073670924533545e-01  8.1275899409427410e-01  4.6992090300145600e-01  -5.7116266436177648e-02  -1.7360772462053413e-02  -3.3851799385176684e-01  -4.7782044433173754e-01  -5.5728458737305020e-01  -4.5677468413436312e-01  -1.9334498267506950e-01  4.4223356769608521e-02  3.1182200883683298e-01  4.3687332922678307e-01  5.2713162856288376e-01  5.0421284440531566e-01  2.0227382630558849e-01  -1.7360772462053413e-02  -2.6003556931226687e-02  -6.0371822041076807e-03  3.0728647650014838e-02  1.9614660117202178e-02  5.5998941646711736e-02  1.8976578167507269e-02  2.4006038636148738e-02  1.7332076419652027e-02  -2.9764212138647005e-02  -3.4365327005776936e-02  -4.9702927005506534e-02  -4.6611791664541539e-02  -2.6003556931226687e-02  -1.5709161047977014e-02  3.3020816515299400e-01  5.3280087732876957e-01  6.6088155797073977e-01  5.8181541463829056e-01  3.4507405633416627e-01  1.4759385232660833e-02  -3.4056932785951710e-01  -5.3159778526465118e-01  -6.0980903819388399e-01  -6.0060548421953830e-01  -3.1560830947069035e-01  -1.5709161047977014e-02  2.5751602553873269e-02  5.2013057205728785e-01  8.0987913882653806e-01  9.7897399164523480e-01  8.1990109219368190e-01  4.6706602928467933e-01  -3.4870888911643270e-02  -5.4511399223182599e-01  -8.0699215137783609e-01  -9.6632760294925879e-01  -8.5010684884764420e-01  -4.3238582272857817e-01  2.5751602553873269e-02  3.4876497703066549e-02  6.2242960726853169e-01  9.7181717083133878e-01  1.0511549959011397e+00  9.1135917231264318e-01  5.5806354065887720e-01  -2.9861163325789971e-02  -6.5590568492796186e-01  -9.7604775241677932e-01  -1.0453581476804485e+00  -9.1150184854220029e-01  -5.3654157162758975e-01  3.4876497703066549e-02  5.2014187225777143e-02  6.0272380566380823e-01  8.5603922040104752e-01  9.1656790215343198e-01  8.2912492729372145e-01  4.5805247398068794e-01  -5.7952280690807954e-02  -5.7593492035170046e-01  -8.2459529823799516e-01  -9.1452407032901417e-01  -8.2710270002968811e-01  -5.0499476454692882e-01  5.2014187225777143e-02  5.1724894596954632e-02  3.0565373428987452e-01  4.3362344477561282e-01  5.3059163267451326e-01  5.0913276433754229e-01  2.0160075081441092e-01  -1.3739118274583266e-02  -3.3347040704791259e-01  -4.7097901661768571e-01  -5.6219083684921545e-01  -4.5911050990767721e-01  -2.0654859822280727e-01  5.1724894596954632e-02  1.0908627148468613e-02  2.1515471692455136e-02  -2.4131422168421589e-02  -3.2168422593530227e-02  -5.1403952644250378e-02  -4.4532567121046043e-02  -1.8225280735767478e-02  -1.7174747802001786e-04  3.4620114769424407e-02  1.5059539247879544e-02  4.6171107918666521e-02  5.9375148050052860e-03  1.0908627148468613e-02  6.9602371550802249e-03  -1.2178646142381604e-02  -1.4448247690253817e-02  -4.4249713773941123e-03  -1.5175055790570439e-02  -1.3287589182380837e-02  4.2937300872433027e-04  -2.4498894292858580e-03  1.7157438142662702e-02  3.4293988949021262e-02  1.8704863940484578e-02  1.1812877318133481e-02  6.9602371550802249e-03  -7.0745774216305901e-03  -5.2736225551253638e-02  -5.4128884507579592e-02  -5.7783990719849992e-02  -4.8990627622664353e-02  -3.4880819253070494e-03  1.8250215079798578e-02  5.6005089998583099e-02  8.5268138020948916e-02  4.3225721677078666e-02  4.6669158538988967e-03  1.0599708960764931e-02  -7.0745774216305901e-03  -2.5447169403649141e-02  -7.9152580932628336e-02  -8.2797597600240441e-02  -6.3660111287344570e-02  -3.4149475506121052e-04  3.6131643826884857e-02  2.1037486825678218e-02  2.9471804897594815e-02  8.4571132767309876e-02  6.1620346442457327e-02  -9.1494069594868011e-05  -1.7089874075295350e-04  -2.5447169403649141e-02  -2.7728940263127867e-02  -5.1197582379757821e-02  -5.5379867702097796e-02  -7.6053483983757305e-03  6.2495137511839383e-02  5.4042385718990324e-02  -5.1529604169447607e-03  4.7437763295508632e-02  6.4538606943107452e-02  4.2653760783888627e-03  -5.1701573614299369e-02  -4.2028232961408320e-02  -2.7728940263127867e-02  -2.1531025172591402e-02  2.7981328836483095e-03  -3.8283573914273958e-03  5.3187663792612805e-02  1.0084392014032412e-01  4.3714753397558800e-02  1.9276601016988571e-02  5.0453507231602107e-02  -4.1700153398336794e-03  -5.5278640190330228e-02  -8.6912717400451520e-02  -7.8741396745403480e-02  -2.1531025172591402e-02  -1.4632029053997221e-02  -3.3476825060231251e-03  4.8660764067688135e-03  4.8311278683405852e-02  8.0926805116455336e-02  5.0763763438782451e-02  1.9865930499944746e-02  5.6565660547299428e-03  -4.6368085376410947e-02  -4.9895468925339942e-02  -5.3604288388644200e-02  -5.0776016064946132e-02  -1.4632029053997221e-02  5.9849445683751842e-04  1.3300247721232781e-02  2.4788731558944829e-02  2.5988297870649782e-02  2.6325657316677759e-02  6.6963564369268095e-03  6.5973098532912345e-03  -7.4200957326388600e-03  -1.7701607595600483e-02  5.7796149958555939e-03  -1.1152686205574209e-02  -2.9160548183944202e-02  5.9849445683751842e-04  1.3362404974382239e-02  4.7652996230861340e-02  7.7841936094350209e-02  4.9811079736353646e-02  7.8015018873596308e-03  2.7114265406040301e-03  -1.8391100565700181e-03  -5.0284967128604412e-02  -4.3828777592927512e-02  -3.7664654080110792e-02  -5.1186424297010848e-02  -1.3318408425412962e-03  1.3362404974382239e-02  5.7492353535588542e-03  4.7731638718555951e-02  8.3995577384128953e-02  4.9670614892654029e-02  -9.3022633432080191e-03  -7.1509103416285301e-03  -2.8734101640063243e-02  -8.1221265964685319e-02  -7.9125689675372313e-02  -6.3157064355675557e-02  3.6286416584092084e-03  4.6403243962399983e-02  5.7492353535588542e-03  -9.8679679630834863e-03  5.0488003276398304e-02  6.1975250820003921e-02  -3.1406574858776088e-03  -5.6465463300535139e-02  -5.7702388481514232e-02  -2.7822287352945268e-02  -4.5741075998610346e-02  -5.0600890395844020e-02  -1.8649288666668330e-03  7.5492499332377186e-02  4.6933529387653189e-02  -9.8679679630834863e-03  2.0686141919927816e-02  5.3993644865256235e-02  5.7962584791924265e-03  -5.8185408605485392e-02  -8.2947619096758143e-02  -8.1225435815557981e-02  -3.7937154492870773e-02  -4.9418945725824409e-04  -1.9908245319114927e-03  4.8160888252748363e-02  7.8307824308339519e-02  4.2272885286848791e-02  2.0686141919927816e-02  1.9182890736033773e-02  -3.5761111494689679e-03  -4.3909388698350614e-02  -4.2582028693825255e-02  -4.6558204016385447e-02  -5.3975147585973833e-02  -4.6874577724241905e-03  -1.8114434266560292e-04  1.2786436036694864e-02  3.1367550992830291e-02  8.3834609201223348e-02  4.8065708347583225e-02  1.9182890736033773e-02  6.9602371550802249e-03  -1.2178646142381604e-02  -1.4448247690253817e-02  -4.4249713773941123e-03  -1.5175055790570439e-02  -1.3287589182380837e-02  4.2937300872433027e-04  -2.4498894292858580e-03  1.7157438142662702e-02  3.4293988949021262e-02  1.8704863940484578e-02  1.1812877318133481e-02  6.9602371550802249e-03  -2.0582142308281703e-02  -4.2452286819967246e-02  -5.8112259416243033e-02  -3.4637226259494135e-02  -3.7643899648663860e-02  1.7374598493226073e-02  1.4134991800716416e-02  2.8636443332405066e-02  6.3580281131033881e-02  2.0089926740760634e-02  2.7845959257159953e-02  6.4970398643053021e-04  -2.0582142308281703e-02  -1.7047194698092225e-02  2.0050365440422463e-01  5.1224062072397114e-01  5.3091498365697154e-01  4.3988093163726982e-01  3.0714498887424641e-01  4.6798340733084559e-02  -2.0800726690182811e-01  -4.7373921667807145e-01  -5.7272810649511396e-01  -4.7534336614942535e-01  -3.3560610682363079e-01  -1.7047194698092225e-02  -5.3254600405772456e-02  4.5409707361891394e-01  8.3200157452785206e-01  9.1700166207431921e-01  8.5048811614903297e-01  6.0367746572263947e-01  5.3560053262284316e-02  -5.1165602173318225e-01  -8.2519614377255002e-01  -9.1542862797090485e-01  -8.1645051122388945e-01  -5.7130570739954922e-01  -5.3254600405772456e-02  -2.1587924770376521e-02  5.6615537626774404e-01  9.1095636712396633e-01  1.0520231642341547e+00  9.7115238529390235e-01  6.1907250964622362e-01  1.7477824802911261e-02  -5.3640018236214337e-01  -9.0815482736299724e-01  -1.0410584866357808e+00  -9.8087989310161683e-01  -6.4446292331006139e-01  -2.1587924770376521e-02  -1.6358043111989660e-02  4.7063303562400316e-01  8.2634939288254883e-01  9.8940439461701402e-01  8.0051676576711239e-01  5.1968420903733770e-01  2.1795446790192789e-02  -4.3595149093505586e-01  -8.6463362208325711e-01  -9.7243011468694485e-01  -8.0667556214856440e-01  -5.3994771015290377e-01  -1.6358043111989660e-02  1.1400447581640950e-02  3.3575503473400764e-01  5.7527200563793834e-01  6.4440346840438811e-01  5.3746983515597491e-01  3.2685581284597487e-01  2.3208059913709236e-04  -3.1378535549378583e-01  -6.1144140507822065e-01  -6.2405591872901478e-01  -5.2154073310635152e-01  -3.4687841375898548e-01  1.1400447581640950e-02  1.7068649028561967e-02  2.7835967344164003e-02  4.8751547732162656e-02  1.7427666074184969e-02  3.8007103265920009e-02  -7.5602809298770191e-03  -9.9418867373544297e-03  -4.5569002951822361e-02  -2.9951340230180413e-02  -1.3700142877755679e-02  -1.1532833210050155e-02  5.7149440345227237e-03  1.7068649028561967e-02  4.6746533537385150e-02  -2.0357191292000743e-01  -4.6616064141861258e-01  -5.6706569477771906e-01  -4.7431704316190765e-01  -3.3848842295740555e-01  -2.6060434395283303e-02  2.2235870292155782e-01  5.1495743497094570e-01  5.4394067487586695e-01  4.3235246174962227e-01  2.9711287429984889e-01  4.6746533537385150e-02  4.7735819514415793e-02  -5.0499042915276549e-01  -8.2498925205433093e-01  -9.1464059357017946e-01  -8.2971363575279489e-01  -5.7766649786271995e-01  -5.5481284756208935e-02  4.7573501764865961e-01  8.3084764239696318e-01  9.2398329369715804e-01  8.5000697747378617e-01  6.0356942319403051e-01  4.7735819514415793e-02  2.2506021999681755e-02  -5.3020934046386514e-01  -9.2724401906067766e-01  -1.0399635277274706e+00  -9.9139465261002524e-01  -6.5902709041964158e-01  -2.0410581591065503e-02  5.6808116096846284e-01  9.1164124920241818e-01  1.0589545480503910e+00  9.8334049282563063e-01  6.2337445791273882e-01  2.2506021999681755e-02  1.1244388660790869e-02  -4.3893229980551068e-01  -8.4672841915145769e-01  -9.6375807771474953e-01  -8.0388655881991333e-01  -5.4911221941233401e-01  -2.911648