<?xml version="1.0"?>
<VTKFile type="UnstructuredGrid"  version="0.1"  >
<UnstructuredGrid>
<Piece  NumberOfPoints="2197" NumberOfCells="10368">
<Points>
<DataArray  type="Float64"  NumberOfComponents="3"  format="ascii">-3.141592653589793 -3.141592653589793 -3.141592653589793  -2.617993877991494 -3.141592653589793 -3.141592653589793  -2.094395102393196 -3.141592653589793 -3.141592653589793  -1.570796326794897 -3.141592653589793 -3.141592653589793  -1.047197551196598 -3.141592653589793 -3.141592653589793  -0.5235987755982987 -3.141592653589793 -3.141592653589793  0 -3.141592653589793 -3.141592653589793  0.5235987755982987 -3.141592653589793 -3.141592653589793  1.047197551196597 -3.141592653589793 -3.141592653589793  1.570796326794897 -3.141592653589793 -3.141592653589793  2.094395102393196 -3.141592653589793 -3.141592653589793  2.617993877991494 -3.141592653589793 -3.141592653589793  3.141592653589793 -3.141592653589793 -3.141592653589793  -3.141592653589793 -2.617993877991494 -3.141592653589793  -2.617993877991494 -2.617993877991494 -3.141592653589793  -2.094395102393196 -2.617993877991494 -3.141592653589793  -1.570796326794897 -2.617993877991494 -3.141592653589793  -1.047197551196598 -2.617993877991494 -3.141592653589793  -0.5235987755982987 -2.617993877991494 -3.141592653589793  0 -2.617993877991494 -3.141592653589793  0.5235987755982987 -2.617993877991494 -3.141592653589793  1.047197551196597 -2.617993877991494 -3.141592653589793  1.570796326794897 -2.617993877991494 -3.141592653589793  2.094395102393196 -2.617993877991494 -3.141592653589793  2.617993877991494 -2.617993877991494 -3.141592653589793  3.141592653589793 -2.617993877991494 -3.141592653589793  -3.141592653589793 -2.094395102393196 -3.141592653589793  -2.617993877991494 -2.094395102393196 -3.141592653589793  -2.094395102393196 -2.094395102393196 -3.141592653589793  -1.570796326794897 -2.094395102393196 -3.141592653589793  -1.047197551196598 -2.094395102393196 -3.141592653589793  -0.5235987755982987 -2.094395102393196 -3.141592653589793  0 -2.094395102393196 -3.141592653589793  0.5235987755982987 -2.094395102393196 -3.141592653589793  1.047197551196597 -2.094395102393196 -3.141592653589793  1.570796326794897 -2.094395102393196 -3.141592653589793  2.094395102393196 -2.094395102393196 -3.141592653589793  2.617993877991494 -2.094395102393196 -3.141592653589793  3.141592653589793 -2.094395102393196 -3.141592653589793  -3.141592653589793 -1.570796326794897 -3.141592653589793  -2.617993877991494 -1.570796326794897 -3.141592653589793  -2.094395102393196 -1.570796326794897 -3.141592653589793  -1.570796326794897 -1.570796326794897 -3.141592653589793  -1.047197551196598 -1.570796326794897 -3.141592653589793  -0.5235987755982987 -1.570796326794897 -3.141592653589793  0 -1.570796326794897 -3.141592653589793  0.5235987755982987 -1.570796326794897 -3.141592653589793  1.047197551196597 -1.570796326794897 -3.141592653589793  1.570796326794897 -1.570796326794897 -3.141592653589793  2.094395102393196 -1.570796326794897 -3.141592653589793  2.617993877991494 -1.570796326794897 -3.141592653589793  3.141592653589793 -1.570796326794897 -3.141592653589793  -3.141592653589793 -1.047197551196598 -3.141592653589793  -2.617993877991494 -1.047197551196598 -3.141592653589793  -2.094395102393196 -1.047197551196598 -3.141592653589793  -1.570796326794897 -1.047197551196598 -3.141592653589793  -1.047197551196598 -1.047197551196598 -3.141592653589793  -0.5235987755982987 -1.047197551196598 -3.141592653589793  0 -1.047197551196598 -3.141592653589793  0.5235987755982987 -1.047197551196598 -3.141592653589793  1.047197551196597 -1.047197551196598 -3.141592653589793  1.570796326794897 -1.047197551196598 -3.141592653589793  2.094395102393196 -1.047197551196598 -3.141592653589793  2.617993877991494 -1.047197551196598 -3.141592653589793  3.141592653589793 -1.047197551196598 -3.141592653589793  -3.141592653589793 -0.5235987755982987 -3.141592653589793  -2.617993877991494 -0.5235987755982987 -3.141592653589793  -2.094395102393196 -0.5235987755982987 -3.141592653589793  -1.570796326794897 -0.5235987755982987 -3.141592653589793  -1.047197551196598 -0.5235987755982987 -3.141592653589793  -0.5235987755982987 -0.5235987755982987 -3.141592653589793  0 -0.5235987755982987 -3.141592653589793  0.5235987755982987 -0.5235987755982987 -3.141592653589793  1.047197551196597 -0.5235987755982987 -3.141592653589793  1.570796326794897 -0.5235987755982987 -3.141592653589793  2.094395102393196 -0.5235987755982987 -3.141592653589793  2.617993877991494 -0.5235987755982987 -3.141592653589793  3.141592653589793 -0.5235987755982987 -3.141592653589793  -3.141592653589793 0 -3.141592653589793  -2.617993877991494 0 -3.141592653589793  -2.094395102393196 0 -3.141592653589793  -1.570796326794897 0 -3.141592653589793  -1.047197551196598 0 -3.141592653589793  -0.5235987755982987 0 -3.141592653589793  0 0 -3.141592653589793  0.5235987755982987 0 -3.141592653589793  1.047197551196597 0 -3.141592653589793  1.570796326794897 0 -3.141592653589793  2.094395102393196 0 -3.141592653589793  2.617993877991494 0 -3.141592653589793  3.141592653589793 0 -3.141592653589793  -3.141592653589793 0.5235987755982987 -3.141592653589793  -2.617993877991494 0.5235987755982987 -3.141592653589793  -2.094395102393196 0.5235987755982987 -3.141592653589793  -1.570796326794897 0.5235987755982987 -3.141592653589793  -1.047197551196598 0.5235987755982987 -3.141592653589793  -0.5235987755982987 0.5235987755982987 -3.141592653589793  0 0.5235987755982987 -3.141592653589793  0.5235987755982987 0.5235987755982987 -3.141592653589793  1.047197551196597 0.5235987755982987 -3.141592653589793  1.570796326794897 0.5235987755982987 -3.141592653589793  2.094395102393196 0.5235987755982987 -3.141592653589793  2.617993877991494 0.5235987755982987 -3.141592653589793  3.141592653589793 0.5235987755982987 -3.141592653589793  -3.141592653589793 1.047197551196597 -3.141592653589793  -2.617993877991494 1.047197551196597 -3.141592653589793  -2.094395102393196 1.047197551196597 -3.141592653589793  -1.570796326794897 1.047197551196597 -3.141592653589793  -1.047197551196598 1.047197551196597 -3.141592653589793  -0.5235987755982987 1.047197551196597 -3.141592653589793  0 1.047197551196597 -3.141592653589793  0.5235987755982987 1.047197551196597 -3.141592653589793  1.047197551196597 1.047197551196597 -3.141592653589793  1.570796326794897 1.047197551196597 -3.141592653589793  2.094395102393196 1.047197551196597 -3.141592653589793  2.617993877991494 1.047197551196597 -3.141592653589793  3.141592653589793 1.047197551196597 -3.141592653589793  -3.141592653589793 1.570796326794897 -3.141592653589793  -2.617993877991494 1.570796326794897 -3.141592653589793  -2.094395102393196 1.570796326794897 -3.141592653589793  -1.570796326794897 1.570796326794897 -3.141592653589793  -1.047197551196598 1.570796326794897 -3.141592653589793  -0.5235987755982987 1.570796326794897 -3.141592653589793  0 1.570796326794897 -3.141592653589793  0.5235987755982987 1.570796326794897 -3.141592653589793  1.047197551196597 1.570796326794897 -3.141592653589793  1.570796326794897 1.570796326794897 -3.141592653589793  2.094395102393196 1.570796326794897 -3.141592653589793  2.617993877991494 1.570796326794897 -3.141592653589793  3.141592653589793 1.570796326794897 -3.141592653589793  -3.141592653589793 2.094395102393196 -3.141592653589793  -2.617993877991494 2.094395102393196 -3.141592653589793  -2.094395102393196 2.094395102393196 -3.141592653589793  -1.570796326794897 2.094395102393196 -3.141592653589793  -1.047197551196598 2.094395102393196 -3.141592653589793  -0.5235987755982987 2.094395102393196 -3.141592653589793  0 2.094395102393196 -3.141592653589793  0.5235987755982987 2.094395102393196 -3.141592653589793  1.047197551196597 2.094395102393196 -3.141592653589793  1.570796326794897 2.094395102393196 -3.141592653589793  2.094395102393196 2.094395102393196 -3.141592653589793  2.617993877991494 2.094395102393196 -3.141592653589793  3.141592653589793 2.094395102393196 -3.141592653589793  -3.141592653589793 2.617993877991494 -3.141592653589793  -2.617993877991494 2.617993877991494 -3.141592653589793  -2.094395102393196 2.617993877991494 -3.141592653589793  -1.570796326794897 2.617993877991494 -3.141592653589793  -1.047197551196598 2.617993877991494 -3.141592653589793  -0.5235987755982987 2.617993877991494 -3.141592653589793  0 2.617993877991494 -3.141592653589793  0.5235987755982987 2.617993877991494 -3.141592653589793  1.047197551196597 2.617993877991494 -3.141592653589793  1.570796326794897 2.617993877991494 -3.141592653589793  2.094395102393196 2.617993877991494 -3.141592653589793  2.617993877991494 2.617993877991494 -3.141592653589793  3.141592653589793 2.617993877991494 -3.141592653589793  -3.141592653589793 3.141592653589793 -3.141592653589793  -2.617993877991494 3.141592653589793 -3.141592653589793  -2.094395102393196 3.141592653589793 -3.141592653589793  -1.570796326794897 3.141592653589793 -3.141592653589793  -1.047197551196598 3.141592653589793 -3.141592653589793  -0.5235987755982987 3.141592653589793 -3.141592653589793  0 3.141592653589793 -3.141592653589793  0.5235987755982987 3.141592653589793 -3.141592653589793  1.047197551196597 3.141592653589793 -3.141592653589793  1.570796326794897 3.141592653589793 -3.141592653589793  2.094395102393196 3.141592653589793 -3.141592653589793  2.617993877991494 3.141592653589793 -3.141592653589793  3.141592653589793 3.141592653589793 -3.141592653589793  -3.141592653589793 -3.141592653589793 -2.617993877991494  -2.617993877991494 -3.141592653589793 -2.617993877991494  -2.094395102393196 -3.141592653589793 -2.617993877991494  -1.570796326794897 -3.141592653589793 -2.617993877991494  -1.047197551196598 -3.141592653589793 -2.617993877991494  -0.5235987755982987 -3.141592653589793 -2.617993877991494  0 -3.141592653589793 -2.617993877991494  0.5235987755982987 -3.141592653589793 -2.617993877991494  1.047197551196597 -3.141592653589793 -2.617993877991494  1.570796326794897 
[...]
<PointData  Scalars="f_292252"> 
<DataArray  type="Float64"  Name="f_292252"  format="ascii">5.1810506364808363e-02  6.1487288123885021e-02  -3.8344023539471313e-02  1.4565951259220443e-02  -5.1629817663935455e-03  -3.1859296994335498e-02  -6.5416159806864493e-02  -3.5369860239490257e-02  -1.1133675982500110e-02  6.5105326357549967e-03  -4.4773758608751275e-02  4.7920622828774385e-02  5.1810506364808363e-02  4.5107261891065821e-02  -7.4249520777522493e-01  -1.0380098930021606e+00  -1.2720724530179084e+00  -9.9814626885704860e-01  -9.3168353993669895e-01  -5.3272544944700163e-02  7.2663473913521393e-01  1.1706964018914028e+00  1.2116797679016551e+00  9.5114945624702785e-01  9.2161940695674249e-01  4.5107261891065821e-02  8.9973588624908517e-03  -1.1723436831747096e+00  -1.3863390175783197e+00  -1.1087592318870036e+00  -1.5917199261371817e+00  -9.4701551121690319e-01  4.2296068642579843e-02  1.0263271441656581e+00  1.3926811961563053e+00  1.1686480548974811e+00  1.5995265485823165e+00  9.9143486950091919e-01  8.9973588624908517e-03  -1.9460277876762629e-02  -1.2022639262195973e+00  -1.1820247195129383e+00  -1.7256488927056162e+00  -1.1705077121617831e+00  -1.2085170785957471e+00  -1.6277170737955270e-02  1.2791652294448317e+00  1.1112373528582860e+00  1.7113846222828750e+00  1.1076347961046535e+00  1.2763553096166689e+00  -1.9460277876762629e-02  3.9647734929047863e-02  -9.4339271151435355e-01  -1.6049015361763079e+00  -1.1071398568909601e+00  -1.3870648871165996e+00  -1.1742569761466723e+00  1.4625577264873379e-02  1.0027772892933244e+00  1.5986104758580169e+00  1.1607749470203574e+00  1.3856539333082538e+00  1.0230308734499993e+00  3.9647734929047863e-02  -4.7689930458910741e-02  -9.4098377986262305e-01  -9.9059589688888983e-01  -1.2775512921402616e+00  -1.0243066004207564e+00  -7.2364959783166627e-01  4.0669589188981670e-02  9.3244153893838000e-01  9.4613857410926416e-01  1.2005210138458551e+00  1.1691650657970645e+00  7.2539273651706859e-01  -4.7689930458910741e-02  -3.5287084365002296e-02  -3.6330843067410905e-02  -1.3837842428500275e-02  2.1948995959248808e-02  -3.2565975201749253e-02  5.0025989726193786e-02  4.2111278807273660e-02  5.1539464304842422e-02  -4.2564622061271019e-02  1.4692714159550584e-02  -1.6291474010767946e-02  -5.4576916774372194e-02  -3.5287084365002296e-02  -5.7517049209268208e-02  7.2804269381802389e-01  1.1717765092403709e+00  1.2104369864661066e+00  9.5480341390421231e-01  9.3274024202838435e-01  3.4901998158320624e-02  -7.2388741267321621e-01  -1.0306283773441298e+00  -1.2655927358696069e+00  -9.9631046337900409e-01  -9.1944478648608130e-01  -5.7517049209268208e-02  3.6467784254384419e-02  1.0360832047464925e+00  1.3899414400734151e+00  1.1669648869479503e+00  1.6004053158177556e+00  9.9431689125605915e-01  8.5767085695406253e-03  -1.1764985459966810e+00  -1.3873050799544997e+00  -1.1145056761506740e+00  -1.5938397045923758e+00  -9.4826867710277929e-01  3.6467784254384419e-02  -1.5826373169527470e-02  1.2841913886791765e+00  1.1170638248058062e+00  1.7256812481390786e+00  1.1088298076118492e+00  1.2716294829358770e+00  -2.0166763203040266e-02  -1.2096730523413175e+00  -1.1736284980358682e+00  -1.7204245704820511e+00  -1.1684355359069403e+00  -1.2094886441782138e+00  -1.5826373169527470e-02  1.5562267185390527e-02  9.9660190706397966e-01  1.5991711528037442e+00  1.1645319374358762e+00  1.3928771154412729e+00  1.0208666579794623e+00  3.4488653751779903e-02  -9.5468828175707621e-01  -1.5792526927530703e+00  -1.1171093052949570e+00  -1.3838245015066895e+00  -1.1678040057422219e+00  1.5562267185390527e-02  3.7936790447114496e-02  9.3619582155719139e-01  9.4855340020724344e-01  1.2078721985962102e+00  1.1758322159898857e+00  7.3421780780660129e-01  -6.2348337606502602e-02  -9.2193434935189877e-01  -9.9493518811186277e-01  -1.2670831566432397e+00  -1.0261260060921675e+00  -7.2404743729961563e-01  3.7936790447114496e-02  5.1810506364808363e-02  6.1487288123885021e-02  -3.8344023539471313e-02  1.4565951259220443e-02  -5.1629817663935455e-03  -3.1859296994335498e-02  -6.5416159806864493e-02  -3.5369860239490257e-02  -1.1133675982500110e-02  6.5105326357549967e-03  -4.4773758608751275e-02  4.7920622828774385e-02  5.1810506364808363e-02  5.8592247933557107e-02  2.8028791217020962e-03  -5.1422903043119798e-02  4.7408257141130037e-03  -7.5604075127645692e-02  -5.3111008381612160e-02  -3.2348931690055718e-02  -4.2999908656216950e-03  1.3147113102953875e-02  -1.3588018552531564e-02  3.7974148522566850e-02  9.4633688301674915e-02  5.8592247933557107e-02  -1.6272849617114424e-02  -6.7425043286262831e-01  -9.1187422288011311e-01  -1.0322225334992676e+00  -9.8858495444891248e-01  -7.3039101589636235e-01  -1.9770409069603756e-02  6.7669488742432760e-01  9.5682888791921861e-01  9.8080535627176901e-01  9.3146526545621611e-01  7.4946858112285752e-01  -1.6272849617114424e-02  -1.9404679504910188e-02  -9.6336643169186442e-01  -1.1771661844502903e+00  -1.2345024636400221e+00  -1.4067723743233460e+00  -8.0548835903210858e-01  5.6959758905587868e-02  9.0439748582837975e-01  1.1701841376087279e+00  1.3066543596993412e+00  1.3719491475743404e+00  8.4381189474835161e-01  -1.9404679504910188e-02  1.6244746901506683e-02  -9.8112874549207596e-01  -1.3090923048778180e+00  -1.5524670396971836e+00  -1.2464597958763806e+00  -1.0309483134098947e+00  -7.8146844818217682e-05  1.0197100565989794e+00  1.2358998762906137e+00  1.5509559690346759e+00  1.1656200259748950e+00  1.0691008676134983e+00  1.6244746901506683e-02  -3.9066399656357990e-02  -9.4630391479723897e-01  -1.3647517994789040e+00  -1.1611413021040342e+00  -1.3373592793062501e+00  -1.0588718628476859e+00  7.9404507758359902e-02  9.8535796011626964e-01  1.3899769027609075e+00  1.2365725437613582e+00  1.3262395687840238e+00  8.8256497751632856e-01  -3.9066399656357990e-02  -8.8979088160449124e-02  -7.5634642179699008e-01  -8.4015077740890665e-01  -1.0642129707496069e+00  -8.8127154444171696e-01  -5.3329843983339587e-01  5.8783686191479383e-02  7.3182612524373625e-01  8.1694084685182800e-01  1.0339045005451950e+00  1.0530626339811386e+00  5.4204473448081247e-01  -8.8979088160449124e-02  -5.0737292695267215e-02  2.3769253364921712e-04  1.2746761780232438e-02  -1.5308813969894405e-02  4.0990163221731449e-02  8.6792307834424501e-02  3.1422740888976348e-02  1.5780315207318537e-02  -5.2040978247303624e-02  3.1377517910291801e-04  -8.0732789911908742e-02  -5.3807755652746134e-02  -5.0737292695267215e-02  -6.5083222724619692e-03  6.6512492523619060e-01  9.5561278186110565e-01  9.8141279033200257e-01  9.4347525540829968e-01  7.6268290346426004e-01  1.0195479280028950e-02  -6.7682264455580421e-01  -8.9988001664691131e-01  -1.0199058487309156e+00  -9.8441960492204794e-01  -7.3358128386702004e-01  -6.5083222724619692e-03  5.2565364789834569e-02  9.1075530356110768e-01  1.1709486544598640e+00  1.3087893359055169e+00  1.3707571631349094e+00  8.4016127561106080e-01  -2.5947441235607552e-02  -9.5481352010008336e-01  -1.1769907972285956e+00  -1.2347463833169090e+00  -1.3896493215335450e+00  -8.0690075210421253e-01  5.2565364789834569e-02  -1.4153773040028483e-03  1.0283581012899294e+00  1.2353919116775933e+00  1.5634791319535850e+00  1.1558189275940944e+00  1.0734065734137503e+00  8.3797660990127584e-03  -9.7949310639733544e-01  -1.3030969062227098e+00  -1.5560016940756207e+00  -1.2476645143783684e+00  -1.0303677612044142e+00  -1.4153773040028483e-03  8.9022799145657541e-02  9.8773247744865855e-01  1.3941802312645528e+00  1.2426793529276408e+00  1.3338920758036361e+00  8.8598770465487775e-01  -4.8559049701671089e-02  -9.3762617610101295e-01  -1.3698857470754640e+00  -1.1687473754559301e+00  -1.3375588733658927e+00  -1.0660104652470734e+00  8.9022799145657541e-02  6.6332788405526547e-02  7.4310633323196440e-01  8.0661251002950440e-01  1.0313786179721642e+00  1.0621151652344298e+00  5.4424502470984926e-01  -7.9094074886168375e-02  -7.6518281881460981e-01  -8.3027385597144421e-01  -1.0518284383416716e+00  -8.8272466309473840e-01  -5.4751073973879527e-01  6.6332788405526547e-02  5.8592247933557107e-02  2.8028791217020962e-03  -5.1422903043119798e-02  4.7408257141130037e-03  -7.5604075127645692e-02  -5.3111008381612160e-02  -3.2348931690055718e-02  -4.2999908656216950e-03  1.3147113102953875e-02  -1.3588018552531564e-02  3.7974148522566850e-02  9.4633688301674915e-02  5.8592247933557107e-02  5.3557751591275333e-03  2.4655764675072495e-02  -2.8441206689456218e-02  -2.6657937071864521e-02  -6.3823430669860445e-02  -3.5301484392697438e-02  -1.3842235295795752e-02  -4.2343754935119417e-03  3.7595778199649835e-02  3.7614094750383835e-03  4.7507094218994184e-02  -4.8413355850571481e-03  5.3557751591275333e-03  2.4093504153065666e-02  -3.6349497784328649e-01  -5.4875848027571783e-01  -6.2578877082958495e-01  -6.2791765240180197e-01  -3.3861517738651636e-01  -1.4919331142867495e-02  3.5153041370994331e-01  5.5266718762848843e-01  6.8274514796476493e-01  6.0755773516470568e-01  3.5207999147961566e-01  2.4093504153065666e-02  -2.5685796136356246e-02  -5.5909141710990451e-01  -7.8615487293030084e-01  -9.7822601275458632e-01  -8.6576158481916743e-01  -4.3916271394608303e-01  1.8099544594934638e-02  5.4978437850115347e-01  7.9253754540402432e-01  9.9051223262555244e-01  8.2259642796910803e-01  4.6963675693288526e-01  -2.5685796136356246e-02  -8.5483272987635205e-03  -6.7766630554156260e-01  -9.9410387506938813e-01  -1.0412232647563051e+00  -9.3643490614688529e-01  -5.2844617391532323e-01  3.0594343352440594e-02  6.2915407019151837e-01  9.7492839577020085e-01  1.0362611312790213e+00  9.3004364926166971e-01  5.8094894159619159e-01  -8.5483272987635205e-03  -5.9988631895000720e-02  -5.9957711665579538e-01  -8.2060839264823726e-01  -9.2810241400741733e-01  -8.4606208309509723e-01  -5.2235702555202668e-01  6.9294087028513571e-02  6.3551801523186824e-01  8.7252155097653750e-01  9.2899214390729745e-01  8.3255575675394000e-01  4.7915336496226751e-01  -5.9988631895000720e-02  -7.6365534410561837e-03  -3.5319105806539886e-01  -4.7920450275345911e-01  -5.7784609357178884e-01  -4.6348421170459786e-01  -1.9116190064322208e-01  3.6149069481476309e-02  3.2399394170483115e-01  4.3916921413475069e-01  5.2312849227266700e-01  5.2764120029927797e-01  2.0176873452395014e-01  -7.6365534410561837e-03  -2.2960896130864186e-02  -1.0935877343473038e-02  3.4203250130118323e-02  7.5261565362046900e-03  5.9358977048857349e-02  8.0180649976400974e-03  2.1152870847601590e-02  2.1006267281395773e-02  -3.4173255010058273e-02  -2.9433073035862071e-02  -6.0803186077744042e-02  -3.8797503693562600e-02  -2.2960896130864186e-02  -1.8174273314766991e-02  3.4631467485526968e-01  5.4627374814121910e-01  6.8856490995523656e-01  6.0640777201845175e-01  3.6054424039018762e-01  1.9611360650507260e-02  -3.5832835242426864e-01  -5.4316769003205090e-01  -6.1773798424649029e-01  -6.3180321368733650e-01  -3.2866280363831268e-01  -1.8174273314766991e-02  2.9091304644898001e-02  5.3258265735747157e-01  7.9216891948736345e-01  9.8920832389243629e-01  8.1885234719887545e-01  4.6767639687625306e-01  -3.9111167067320214e-02  -5.5910569556009049e-01  -7.9024559374287540e-01  -9.6449743061200011e-01  -8.6524799284025267e-01  -4.3348167335159543e-01  2.9091304644898001e-02  2.9519495279529684e-02  6.3096261991708158e-01  9.7137286061724704e-01  1.0499191693060621e+00  9.1936616934489279e-01  5.7820486541064908e-01  -1.7866107364285354e-02  -6.8341713831134965e-01  -9.8444000457191860e-01  -1.0433983342822242e+00  -9.3038608297094738e-01  -5.3363813289504702e-01  2.9519495279529684e-02  6.4329150841357388e-02  6.3363276582818551e-01  8.7212575976888618e-01  9.3661368236994946e-01  8.5005496562825245e-01  4.6523834382093487e-01  -6.1327740188416822e-02  -6.0120706878932717e-01  -8.2341492519266890e-01  -9.2393624357600179e-01  -8.4961059013076434e-01  -5.2839322493502583e-01  6.4329150841357388e-02  4.4071755071798446e-02  3.1824988939845356e-01  4.3373400142219354e-01  5.2687950681295470e-01  5.3412289393970225e-01  2.0028342619824838e-01  -4.3264856418762663e-03  -3.4654418620966942e-01  -4.7146475277213751e-01  -5.8417454215863751e-01  -4.6660352261570837e-01  -2.0460231188993186e-01  4.4071755071798446e-02  5.3557751591275333e-03  2.4655764675072495e-02  -2.8441206689456218e-02  -2.6657937071864521e-02  -6.3823430669860445e-02  -3.5301484392697438e-02  -1.3842235295795752e-02  -4.2343754935119417e-03  3.7595778199649835e-02  3.7614094750383835e-03  4.7507094218994184e-02  -4.8413355850571481e-03  5.3557751591275333e-03  7.1859614398155913e-03  -8.5749874369481973e-03  -5.3550003464818002e-03  1.3701302558780021e-02  -5.4434342017940437e-03  -9.3262263154457754e-03  7.6692868313399853e-04  -8.3193307084481905e-03  8.8297397102966631e-03  2.3841636627190025e-02  1.2028790871373957e-02  6.4962517867668016e-03  7.1859614398155913e-03  -1.8905366383619232e-03  -5.6791914268858830e-02  -4.8895428847196699e-02  -6.3689960534142540e-02  -6.5417749284892218e-02  -3.7836788234488052e-03  1.5172584188835457e-02  6.0127938550794541e-02  9.7313727521213256e-02  4.6471889469604309e-02  -1.8754933313088829e-04  1.1400689525465971e-02  -1.8905366383619232e-03  -1.7559295017180048e-02  -9.0491748629679694e-02  -9.4116974365856643e-02  -7.6228736507262015e-02  -5.6951145171055736e-05  5.0744685657206301e-02  1.2390073631566193e-02  2.1317451176643493e-02  9.5115532381197729e-02  7.0812417113753467e-02  7.5923138532372244e-04  3.7968265349094137e-03  -1.7559295017180048e-02  -1.6188050190878298e-02  -5.4848194195149837e-02  -6.3650505083048023e-02  -8.6968359688130940e-03  7.5223443364450124e-02  5.9013353134802389e-02  -2.3598441608488493e-02  5.2300283950520804e-02  7.7209451851914204e-02  5.2648312070543444e-03  -5.9057460188753304e-02  -4.3695408320290265e-02  -1.6188050190878298e-02  -1.4834055900613805e-02  8.3873079787767646e-03  -3.5109096356649334e-03  6.0818227146778842e-02  1.1431389055889216e-01  3.7301571581685358e-02  9.6312620863921849e-03  6.8189750534758287e-02  -5.1747594715893788e-03  -6.7259785445034359e-02  -9.8672596184091174e-02  -9.0202656343003410e-02  -1.4834055900613805e-02  -9.1223103785354753e-03  -3.3968195400567772e-03  1.5795556194913673e-05  5.1125385794842840e-02  9.1846636514013882e-02  5.4408720133253853e-02  1.6599207883489609e-02  5.9489532727930337e-03  -6.2518007340186740e-02  -5.4875050029960688e-02  -4.8441218518603647e-02  -5.4415221220987790e-02  -9.1223103785354753e-03  -4.8484582034627195e-04  8.2013501081537842e-03  1.8098105184925210e-02  1.4892031343494988e-02  1.9196091970699828e-02  1.5593090876663235e-03  8.0436180519428049e-03  -2.9841488379582972e-03  -8.9479502452028403e-03  2.5430137803443661e-02  -1.6043015057873556e-03  -2.6816790928441341e-02  -4.8484582034627195e-04  1.0412952682037081e-02  5.1126280800590111e-02  8.9169029744090161e-02  5.1442818584601487e-02  4.3360730570661298e-03  2.5061986699962879e-03  3.8096990869019745e-03  -5.4206497846387230e-02  -3.6774673751361737e-02  -4.1828477017101275e-02  -6.7669286958990230e-02  -2.6189010244349283e-03  1.0412952682037081e-02  -5.3978165807356294e-03  4.3180559948140310e-02  9.4629697059593829e-02  5.7337779473607985e-02  -1.0129026084905870e-02  -3.0772191208524296e-03  -2.0386879975482483e-02  -9.1232949219346451e-02  -9.0015860916629373e-02  -7.5405232426126706e-02  3.4678362254178191e-03  6.3053141193143467e-02  -5.3978165807356294e-03  -2.8821583883925271e-02  5.6002231263414914e-02  7.4519000763452900e-02  -3.5848877249376960e-03  -6.5017623031500715e-02  -6.1027284428706259e-02  -1.8814495220963370e-02  -4.7699322423890252e-02  -5.8906511943424042e-02  -2.6903432530124864e-03  9.0325379214248422e-02  5.1103928970081341e-02  -2.8821583883925271e-02  1.1759060271401571e-02  7.0660529932486643e-02  6.8690017000289216e-03  -7.0284588713566673e-02  -9.3749012795624670e-02  -9.2742891231602356e-02  -3.1343509579480976e-02  3.3392645119603506e-03  -1.6853507838924058e-03  5.3579261312177030e-02  8.8723352830121033e-02  3.6002409092016921e-02  1.1759060271401571e-02  1.5831510664384364e-02  -3.4258120372482152e-03  -6.0463008146332847e-02  -4.6743751430487951e-02  -4.0834091975179579e-02  -5.8338479878888454e-02  8.8374427399648306e-04  1.0883281087615586e-04  8.6928177304097763e-03  3.2394439956652671e-02  9.5355262648618530e-02  5.2130404539774758e-02  1.5831510664384364e-02  7.1859614398155913e-03  -8.5749874369481973e-03  -5.3550003464818002e-03  1.3701302558780021e-02  -5.4434342017940437e-03  -9.3262263154457754e-03  7.6692868313399853e-04  -8.3193307084481905e-03  8.8297397102966631e-03  2.3841636627190025e-02  1.2028790871373957e-02  6.4962517867668016e-03  7.1859614398155913e-03  -1.6702880909802802e-02  -3.5090980430831746e-02  -6.9428738639007434e-02  -3.0321372122725739e-02  -4.3142507367769589e-02  2.0115269269238640e-02  1.0888639367727857e-02  1.9642182014777236e-02  6.7339543822677275e-02  6.5894693275354785e-03  3.1150112747068779e-02  -4.0763889796180631e-03  -1.6702880909802802e-02  -6.7409910098400446e-03  1.9892750741239976e-01  5.3745578314377285e-01  5.2761204594658773e-01  4.4208599403640636e-01  3.1964798130411459e-01  3.8010391765668110e-02  -2.0701136199469872e-01  -4.8410362954787295e-01  -5.9322531542740831e-01  -4.7854011853887546e-01  -3.4923381564434214e-01  -6.7409910098400446e-03  -5.7232797675329385e-02  4.6140068750736957e-01  8.5384371016735938e-01  9.3665331550703590e-01  8.6399567101917607e-01  6.3515562721190622e-01  6.6097320799186329e-02  -5.3589386110146664e-01  -8.4690737577517416e-01  -9.2537324974537571e-01  -8.1393004395016999e-01  -5.9331287055354964e-01  -5.7232797675329385e-02  -8.6598552114164149e-03  5.8778065514910693e-01  9.2085649140386494e-01  1.0493001420457775e+00  9.7007023632138323e-01  6.2802047786436277e-01  1.1402743340687352e-02  -5.3409303794054419e-01  -9.2673996763948563e-01  -1.0372914088933560e+00  -9.9171165290369478e-01  -6.7091099786262820e-01  -8.6598552114164149e-03  -1.7845881966893472e-02  4.7303274796007128e-01  8.2484504468521791e-01  9.9991353025994445e-01  7.8312051768742375e-01  5.3104961334989864e-01  2.3930268520038763e-02  -4.3691126075031195e-01  -8.8281999600988104e-01  -9.7069781768943331e-01  -7.8942892145547416e-01  -5.5537005310361376e-01  -1.7845881966893472e-02  1.9033058704335231e-02  3.4861716466033893e-01  5.9912569461969556e-01  6.7061059030346271e-01  5.5182942371721455e-01  3.4066637768435887e-01  2.0697601168062365e-03  -3.2801500134704115e-01  -6.4217851078789789e-01  -6.3371974084764526e-01  -5.3288744086714279e-01  -3.6386401806175411e-01  1.9033058704335231e-02  1.1741691688412043e-02  1.9119214786644044e-02  5.0764434035154432e-02  4.7048835716884847e-03  4.1882778062566579e-02  -1.3751879382155443e-02  -4.8526407066633156e-03  -3.9078043561100208e-02  -3.8255830995547843e-02  -5.8384614717130892e-03  -1.2671996082462143e-02  5.6577294009151884e-03  1.1741691688412043e-02  3.9368205677917739e-02  -2.0132539261259069e-01  -4.7444732301136006e-01  -5.8924878111127077e-01  -4.7544824425315529e-01  -3.5257745464527851e-01  -1.7120998236072670e-02  2.2393834658733278e-01  5.4223261478726459e-01  5.4379705661893862e-01  4.3259536398153853e-01  3.0998405576635812e-01  3.9368205677917739e-02  5.7755603109594579e-02  -5.2970990712847021e-01  -8.4689660878790030e-01  -9.2438804411168296e-01  -8.2918701128537142e-01  -6.0266531553510982e-01  -5.7151011741303721e-02  4.8545495281400625e-01  8.5312587101009785e-01  9.4368870656961090e-01  8.6547157715258838e-01  6.3320411191112080e-01  5.7755603109594579e-02  1.7596109712690513e-02  -5.2766231263591057e-01  -9.4802873011992295e-01  -1.0365155091821567e+00  -1.0042928898138761e+00  -6.8671517636164370e-01  -8.8491541156839517e-03  5.8950127911896555e-01  9.2056741986109247e-01  1.0590160065892835e+00  9.8202554238053696e-01  6.3122916842120680e-01  1.7596109712690513e-02  1.2783166698226251e-02  -4.3930271274263744e-01  -8.6090512209403303e-01  -9.6123878620911574e-01  -7.8390027845700372e-01  -5.6491115011572290e-01  -3.13468701