<?xml version="1.0"?>
<VTKFile type="UnstructuredGrid"  version="0.1"  >
<UnstructuredGrid>
<Piece  NumberOfPoints="2197" NumberOfCells="10368">
<Points>
<DataArray  type="Float64"  NumberOfComponents="3"  format="ascii">-3.141592653589793 -3.141592653589793 -3.141592653589793  -2.617993877991494 -3.141592653589793 -3.141592653589793  -2.094395102393196 -3.141592653589793 -3.141592653589793  -1.570796326794897 -3.141592653589793 -3.141592653589793  -1.047197551196598 -3.141592653589793 -3.141592653589793  -0.5235987755982987 -3.141592653589793 -3.141592653589793  0 -3.141592653589793 -3.141592653589793  0.5235987755982987 -3.141592653589793 -3.141592653589793  1.047197551196597 -3.141592653589793 -3.141592653589793  1.570796326794897 -3.141592653589793 -3.141592653589793  2.094395102393196 -3.141592653589793 -3.141592653589793  2.617993877991494 -3.141592653589793 -3.141592653589793  3.141592653589793 -3.141592653589793 -3.141592653589793  -3.141592653589793 -2.617993877991494 -3.141592653589793  -2.617993877991494 -2.617993877991494 -3.141592653589793  -2.094395102393196 -2.617993877991494 -3.141592653589793  -1.570796326794897 -2.617993877991494 -3.141592653589793  -1.047197551196598 -2.617993877991494 -3.141592653589793  -0.5235987755982987 -2.617993877991494 -3.141592653589793  0 -2.617993877991494 -3.141592653589793  0.5235987755982987 -2.617993877991494 -3.141592653589793  1.047197551196597 -2.617993877991494 -3.141592653589793  1.570796326794897 -2.617993877991494 -3.141592653589793  2.094395102393196 -2.617993877991494 -3.141592653589793  2.617993877991494 -2.617993877991494 -3.141592653589793  3.141592653589793 -2.617993877991494 -3.141592653589793  -3.141592653589793 -2.094395102393196 -3.141592653589793  -2.617993877991494 -2.094395102393196 -3.141592653589793  -2.094395102393196 -2.094395102393196 -3.141592653589793  -1.570796326794897 -2.094395102393196 -3.141592653589793  -1.047197551196598 -2.094395102393196 -3.141592653589793  -0.5235987755982987 -2.094395102393196 -3.141592653589793  0 -2.094395102393196 -3.141592653589793  0.5235987755982987 -2.094395102393196 -3.141592653589793  1.047197551196597 -2.094395102393196 -3.141592653589793  1.570796326794897 -2.094395102393196 -3.141592653589793  2.094395102393196 -2.094395102393196 -3.141592653589793  2.617993877991494 -2.094395102393196 -3.141592653589793  3.141592653589793 -2.094395102393196 -3.141592653589793  -3.141592653589793 -1.570796326794897 -3.141592653589793  -2.617993877991494 -1.570796326794897 -3.141592653589793  -2.094395102393196 -1.570796326794897 -3.141592653589793  -1.570796326794897 -1.570796326794897 -3.141592653589793  -1.047197551196598 -1.570796326794897 -3.141592653589793  -0.5235987755982987 -1.570796326794897 -3.141592653589793  0 -1.570796326794897 -3.141592653589793  0.5235987755982987 -1.570796326794897 -3.141592653589793  1.047197551196597 -1.570796326794897 -3.141592653589793  1.570796326794897 -1.570796326794897 -3.141592653589793  2.094395102393196 -1.570796326794897 -3.141592653589793  2.617993877991494 -1.570796326794897 -3.141592653589793  3.141592653589793 -1.570796326794897 -3.141592653589793  -3.141592653589793 -1.047197551196598 -3.141592653589793  -2.617993877991494 -1.047197551196598 -3.141592653589793  -2.094395102393196 -1.047197551196598 -3.141592653589793  -1.570796326794897 -1.047197551196598 -3.141592653589793  -1.047197551196598 -1.047197551196598 -3.141592653589793  -0.5235987755982987 -1.047197551196598 -3.141592653589793  0 -1.047197551196598 -3.141592653589793  0.5235987755982987 -1.047197551196598 -3.141592653589793  1.047197551196597 -1.047197551196598 -3.141592653589793  1.570796326794897 -1.047197551196598 -3.141592653589793  2.094395102393196 -1.047197551196598 -3.141592653589793  2.617993877991494 -1.047197551196598 -3.141592653589793  3.141592653589793 -1.047197551196598 -3.141592653589793  -3.141592653589793 -0.5235987755982987 -3.141592653589793  -2.617993877991494 -0.5235987755982987 -3.141592653589793  -2.094395102393196 -0.5235987755982987 -3.141592653589793  -1.570796326794897 -0.5235987755982987 -3.141592653589793  -1.047197551196598 -0.5235987755982987 -3.141592653589793  -0.5235987755982987 -0.5235987755982987 -3.141592653589793  0 -0.5235987755982987 -3.141592653589793  0.5235987755982987 -0.5235987755982987 -3.141592653589793  1.047197551196597 -0.5235987755982987 -3.141592653589793  1.570796326794897 -0.5235987755982987 -3.141592653589793  2.094395102393196 -0.5235987755982987 -3.141592653589793  2.617993877991494 -0.5235987755982987 -3.141592653589793  3.141592653589793 -0.5235987755982987 -3.141592653589793  -3.141592653589793 0 -3.141592653589793  -2.617993877991494 0 -3.141592653589793  -2.094395102393196 0 -3.141592653589793  -1.570796326794897 0 -3.141592653589793  -1.047197551196598 0 -3.141592653589793  -0.5235987755982987 0 -3.141592653589793  0 0 -3.141592653589793  0.5235987755982987 0 -3.141592653589793  1.047197551196597 0 -3.141592653589793  1.570796326794897 0 -3.141592653589793  2.094395102393196 0 -3.141592653589793  2.617993877991494 0 -3.141592653589793  3.141592653589793 0 -3.141592653589793  -3.141592653589793 0.5235987755982987 -3.141592653589793  -2.617993877991494 0.5235987755982987 -3.141592653589793  -2.094395102393196 0.5235987755982987 -3.141592653589793  -1.570796326794897 0.5235987755982987 -3.141592653589793  -1.047197551196598 0.5235987755982987 -3.141592653589793  -0.5235987755982987 0.5235987755982987 -3.141592653589793  0 0.5235987755982987 -3.141592653589793  0.5235987755982987 0.5235987755982987 -3.141592653589793  1.047197551196597 0.5235987755982987 -3.141592653589793  1.570796326794897 0.5235987755982987 -3.141592653589793  2.094395102393196 0.5235987755982987 -3.141592653589793  2.617993877991494 0.5235987755982987 -3.141592653589793  3.141592653589793 0.5235987755982987 -3.141592653589793  -3.141592653589793 1.047197551196597 -3.141592653589793  -2.617993877991494 1.047197551196597 -3.141592653589793  -2.094395102393196 1.047197551196597 -3.141592653589793  -1.570796326794897 1.047197551196597 -3.141592653589793  -1.047197551196598 1.047197551196597 -3.141592653589793  -0.5235987755982987 1.047197551196597 -3.141592653589793  0 1.047197551196597 -3.141592653589793  0.5235987755982987 1.047197551196597 -3.141592653589793  1.047197551196597 1.047197551196597 -3.141592653589793  1.570796326794897 1.047197551196597 -3.141592653589793  2.094395102393196 1.047197551196597 -3.141592653589793  2.617993877991494 1.047197551196597 -3.141592653589793  3.141592653589793 1.047197551196597 -3.141592653589793  -3.141592653589793 1.570796326794897 -3.141592653589793  -2.617993877991494 1.570796326794897 -3.141592653589793  -2.094395102393196 1.570796326794897 -3.141592653589793  -1.570796326794897 1.570796326794897 -3.141592653589793  -1.047197551196598 1.570796326794897 -3.141592653589793  -0.5235987755982987 1.570796326794897 -3.141592653589793  0 1.570796326794897 -3.141592653589793  0.5235987755982987 1.570796326794897 -3.141592653589793  1.047197551196597 1.570796326794897 -3.141592653589793  1.570796326794897 1.570796326794897 -3.141592653589793  2.094395102393196 1.570796326794897 -3.141592653589793  2.617993877991494 1.570796326794897 -3.141592653589793  3.141592653589793 1.570796326794897 -3.141592653589793  -3.141592653589793 2.094395102393196 -3.141592653589793  -2.617993877991494 2.094395102393196 -3.141592653589793  -2.094395102393196 2.094395102393196 -3.141592653589793  -1.570796326794897 2.094395102393196 -3.141592653589793  -1.047197551196598 2.094395102393196 -3.141592653589793  -0.5235987755982987 2.094395102393196 -3.141592653589793  0 2.094395102393196 -3.141592653589793  0.5235987755982987 2.094395102393196 -3.141592653589793  1.047197551196597 2.094395102393196 -3.141592653589793  1.570796326794897 2.094395102393196 -3.141592653589793  2.094395102393196 2.094395102393196 -3.141592653589793  2.617993877991494 2.094395102393196 -3.141592653589793  3.141592653589793 2.094395102393196 -3.141592653589793  -3.141592653589793 2.617993877991494 -3.141592653589793  -2.617993877991494 2.617993877991494 -3.141592653589793  -2.094395102393196 2.617993877991494 -3.141592653589793  -1.570796326794897 2.617993877991494 -3.141592653589793  -1.047197551196598 2.617993877991494 -3.141592653589793  -0.5235987755982987 2.617993877991494 -3.141592653589793  0 2.617993877991494 -3.141592653589793  0.5235987755982987 2.617993877991494 -3.141592653589793  1.047197551196597 2.617993877991494 -3.141592653589793  1.570796326794897 2.617993877991494 -3.141592653589793  2.094395102393196 2.617993877991494 -3.141592653589793  2.617993877991494 2.617993877991494 -3.141592653589793  3.141592653589793 2.617993877991494 -3.141592653589793  -3.141592653589793 3.141592653589793 -3.141592653589793  -2.617993877991494 3.141592653589793 -3.141592653589793  -2.094395102393196 3.141592653589793 -3.141592653589793  -1.570796326794897 3.141592653589793 -3.141592653589793  -1.047197551196598 3.141592653589793 -3.141592653589793  -0.5235987755982987 3.141592653589793 -3.141592653589793  0 3.141592653589793 -3.141592653589793  0.5235987755982987 3.141592653589793 -3.141592653589793  1.047197551196597 3.141592653589793 -3.141592653589793  1.570796326794897 3.141592653589793 -3.141592653589793  2.094395102393196 3.141592653589793 -3.141592653589793  2.617993877991494 3.141592653589793 -3.141592653589793  3.141592653589793 3.141592653589793 -3.141592653589793  -3.141592653589793 -3.141592653589793 -2.617993877991494  -2.617993877991494 -3.141592653589793 -2.617993877991494  -2.094395102393196 -3.141592653589793 -2.617993877991494  -1.570796326794897 -3.141592653589793 -2.617993877991494  -1.047197551196598 -3.141592653589793 -2.617993877991494  -0.5235987755982987 -3.141592653589793 -2.617993877991494  0 -3.141592653589793 -2.617993877991494  0.5235987755982987 -3.141592653589793 -2.617993877991494  1.047197551196597 -3.141592653589793 -2.617993877991494  1.570796326794897 
[...]
<PointData  Scalars="f_273372"> 
<DataArray  type="Float64"  Name="f_273372"  format="ascii">5.6361042798806500e-02  6.5034148994786239e-02  -3.2378515521796138e-02  1.0925046476852218e-02  -3.4770707040067878e-03  -3.4966691373442702e-02  -6.8057074697502565e-02  -3.5738935468186767e-02  -1.2337577770909693e-02  4.0660775743412694e-03  -3.9651888322214342e-02  5.2207311923520648e-02  5.6361042798806500e-02  4.7189998801387294e-02  -7.2301727315835362e-01  -1.0357366548175932e+00  -1.2263847579253897e+00  -1.0149039242108153e+00  -8.9000065131422113e-01  -5.7097892278971829e-02  7.0829083436371709e-01  1.1644950413268096e+00  1.1768128778504146e+00  9.5548784835921607e-01  8.7911183196748688e-01  4.7189998801387294e-02  8.5913261852113929e-03  -1.1671183283327333e+00  -1.3945632366619436e+00  -1.1939781592109342e+00  -1.6018104945944400e+00  -9.5146301856853044e-01  3.7433937416037247e-02  1.0238530787338143e+00  1.4014536288619177e+00  1.2522610017014597e+00  1.6092892021688190e+00  1.0087330187419039e+00  8.5913261852113929e-03  -1.5784186505177576e-02  -1.1668775912494427e+00  -1.2656165500405641e+00  -1.7589814398879113e+00  -1.2534655744837639e+00  -1.1732248122322506e+00  -1.2895895044282605e-02  1.2331512525243076e+00  1.1954688288677433e+00  1.7447222839109442e+00  1.1915553111660910e+00  1.2308616215393362e+00  -1.5784186505177576e-02  3.5094022662251784e-02  -9.4893468762171074e-01  -1.6138680783696537e+00  -1.1920011070821690e+00  -1.3954859874438219e+00  -1.1687857014325371e+00  1.2277951147226364e-02  1.0200532141293814e+00  1.6090878264603694e+00  1.2437031160817837e+00  1.3941885839534958e+00  1.0209401954468964e+00  3.5094022662251784e-02  -5.1998470185249404e-02  -8.9809971244012365e-01  -1.0071991997750167e+00  -1.2322160005250049e+00  -1.0220673672081328e+00  -7.0560476270479888e-01  4.3199455087916859e-02  8.8970437645076805e-01  9.5141335746893974e-01  1.1663396572499118e+00  1.1627173578133259e+00  7.0780346275741524e-01  -5.1998470185249404e-02  -4.0729069912971476e-02  -3.8283682316914071e-02  -1.2752249159012278e-02  1.7817338849302627e-02  -2.7862155328291442e-02  5.4060863523327098e-02  4.6772559989267194e-02  5.5597319878953735e-02  -3.6905335647144197e-02  1.1434526582527318e-02  -1.4215730812932068e-02  -5.4201848628491853e-02  -4.0729069912971476e-02  -6.1978079433128733e-02  7.0933768574566880e-01  1.1659612865756972e+00  1.1755901780529172e+00  9.5979588884758782e-01  8.8987389846985343e-01  3.6641511640192560e-02  -7.0590124849252667e-01  -1.0289571159568454e+00  -1.2208734355782924e+00  -1.0130478597470509e+00  -8.7807514155381539e-01  -6.1978079433128733e-02  3.1940857546588625e-02  1.0337210059562307e+00  1.3979927052542072e+00  1.2504601276426961e+00  1.6100102475957430e+00  1.0110784122009346e+00  7.7009285745947165e-03  -1.1706157713055758e+00  -1.3958217899310907e+00  -1.1989832280696826e+00  -1.6039392359483795e+00  -9.5198135782071547e-01  3.1940857546588625e-02  -1.4162821758359406e-02  1.2385187289205861e+00  1.2014515065935383e+00  1.7584738683080607e+00  1.1938764015522167e+00  1.2258380295722782e+00  -1.5983373433314449e-02  -1.1746774553809411e+00  -1.2565692317998114e+00  -1.7535814422488476e+00  -1.2511686921691085e+00  -1.1747431669927864e+00  -1.4162821758359406e-02  1.4612148192534756e-02  1.0134864954601082e+00  1.6093456004403097e+00  1.2470529516773901e+00  1.4013101820206386e+00  1.0184657238046588e+00  2.9757456777627506e-02  -9.5926800036400894e-01  -1.5888975880452916e+00  -1.2006900330304648e+00  -1.3927243610807474e+00  -1.1612149621830783e+00  1.4612148192534756e-02  3.7525212206952860e-02  8.9411620311979390e-01  9.5276228209006053e-01  1.1728856370104950e+00  1.1691607359148926e+00  7.1756238532118022e-01  -6.6342898980736906e-02  -8.8039938892943781e-01  -1.0111785973008014e+00  -1.2232402412487302e+00  -1.0242935990156632e+00  -7.0581821651388421e-01  3.7525212206952860e-02  5.6361042798806500e-02  6.5034148994786239e-02  -3.2378515521796138e-02  1.0925046476852218e-02  -3.4770707040067878e-03  -3.4966691373442702e-02  -6.8057074697502565e-02  -3.5738935468186767e-02  -1.2337577770909693e-02  4.0660775743412694e-03  -3.9651888322214342e-02  5.2207311923520648e-02  5.6361042798806500e-02  5.8379238294437939e-02  7.9370689659939396e-03  -4.6955150208933885e-02  1.6917162250461464e-03  -7.2379456612800028e-02  -5.5587689802524036e-02  -3.3731001380725038e-02  -7.2407390416814000e-03  1.7137641066159507e-02  -8.5710688035151444e-03  4.2376410274578342e-02  9.1669112218336013e-02  5.8379238294437939e-02  -1.1363690607153998e-02  -6.5633456036145599e-01  -9.0135738623934614e-01  -1.0042206347126970e+00  -9.8911494487904661e-01  -6.9861725203295955e-01  -2.3886849732323800e-02  6.5764212368945885e-01  9.4230460300248986e-01  9.7100144071221994e-01  9.2106532077617709e-01  7.1586644925571119e-01  -1.1363690607153998e-02  -2.3162801035417110e-02  -9.4702478144637336e-01  -1.1919445687677535e+00  -1.2908290198475945e+00  -1.4120286983032559e+00  -8.0195327250967297e-01  5.1729079471841619e-02  8.9540126893270622e-01  1.1847626255843713e+00  1.3414073946520728e+00  1.3832318779503099e+00  8.5177037237058895e-01  -2.3162801035417110e-02  1.0980061109060258e-02  -9.7181163423288031e-01  -1.3430131220931056e+00  -1.5767745805112234e+00  -1.2874645965246843e+00  -1.0017974057588883e+00  3.7087630839303361e-03  9.9218305301463128e-01  1.2919134035119866e+00  1.5755205719118577e+00  1.2114283157533703e+00  1.0404105305850431e+00  1.0980061109060258e-02  -4.3143404647865639e-02  -9.3578103315209371e-01  -1.3774623811964795e+00  -1.2067700038065075e+00  -1.3399229473733032e+00  -1.0397861108520303e+00  7.7039790964818916e-02  9.8470852210485615e-01  1.3968977880139444e+00  1.2766871684218928e+00  1.3284044567845157e+00  8.7974262028631123e-01  -4.3143404647865639e-02  -8.6887174311171961e-02  -7.2216985963535696e-01  -8.4770679740640864e-01  -1.0356132445380672e+00  -8.7866168773111519e-01  -5.2049299760720980e-01  5.9878285155494045e-02  7.0059256078576182e-01  8.1259710160001453e-01  1.0049687371034630e+00  1.0358281846196833e+00  5.2792263790664484e-01  -8.6887174311171961e-02  -5.1195001106574017e-02  -1.8043699268800221e-03  1.6509679337377209e-02  -9.9917359317994604e-03  4.5022477512085678e-02  8.4418089843784794e-02  3.4429271807138714e-02  1.9655155998755225e-02  -4.6818948937097843e-02  -3.4313425765752190e-03  -7.7597122516685421e-02  -5.5766524497622046e-02  -5.1195001106574017e-02  -1.1380283877613464e-02  6.4723064491755633e-01  9.3997977099261498e-01  9.7256871812199563e-01  9.3302312943579435e-01  7.2789660592633088e-01  1.1420748541278216e-02  -6.5849523496512075e-01  -8.9089953040549030e-01  -9.9273942262878467e-01  -9.8409300768849639e-01  -7.0269472560945101e-01  -1.1380283877613464e-02  4.7898760251234442e-02  9.0129009311128050e-01  1.1855533680426100e+00  1.3436544038554243e+00  1.3821776034284499e+00  8.4778086387046347e-01  -2.9132606857648839e-02  -9.3926114882021905e-01  -1.1912761515478218e+00  -1.2910362181862292e+00  -1.3952232873560413e+00  -8.0338122289456226e-01  4.7898760251234442e-02  1.8959856295014707e-03  1.0006193662891032e+00  1.2913152778321517e+00  1.5872339081723352e+00  1.2017260016888591e+00  1.0445093503125682e+00  2.8775425269031546e-03  -9.7038268898583491e-01  -1.3371746832428479e+00  -1.5802097101354526e+00  -1.2879559215095064e+00  -1.0014657610375497e+00  1.8959856295014707e-03  8.5224329113714456e-02  9.8717234210845617e-01  1.4008930446266696e+00  1.2826929554729110e+00  1.3363845463121580e+00  8.8281008134476224e-01  -5.1842575662935084e-02  -9.2752331422106593e-01  -1.3813804169598443e+00  -1.2148196950733225e+00  -1.3395603585714717e+00  -1.0471753414848439e+00  8.5224329113714456e-02  6.7100460731639472e-02  7.1205583372493975e-01  8.0252302911868056e-01  1.0020525321497402e+00  1.0426612943432916e+00  5.3071128165523040e-01  -7.7025403404000728e-02  -7.3081886822667375e-01  -8.3745200968770994e-01  -1.0238111642647711e+00  -8.8033019235627652e-01  -5.3304560060933603e-01  6.7100460731639472e-02  5.8379238294437939e-02  7.9370689659939396e-03  -4.6955150208933885e-02  1.6917162250461464e-03  -7.2379456612800028e-02  -5.5587689802524036e-02  -3.3731001380725038e-02  -7.2407390416814000e-03  1.7137641066159507e-02  -8.5710688035151444e-03  4.2376410274578342e-02  9.1669112218336013e-02  5.8379238294437939e-02  8.7713352943226790e-03  2.3106345516827168e-02  -2.5924350701957255e-02  -3.0282338161326947e-02  -5.6450059368846187e-02  -4.0424822023581254e-02  -1.6579146232609004e-02  -1.7921837739313016e-03  3.6035242537812692e-02  1.0449836263579895e-02  4.6737857343332433e-02  1.2524982593906007e-03  8.7713352943226790e-03  2.0720246755865424e-02  -3.5345970408596245e-01  -5.4018013984238655e-01  -6.2195645686783951e-01  -6.1046370366384384e-01  -3.2979185418015883e-01  -1.3709749632416559e-02  3.4192303362009446e-01  5.4429491769732208e-01  6.6731123800459302e-01  5.9245245384761380e-01  3.4390767595440802e-01  2.0720246755865424e-02  -2.4448366563114245e-02  -5.5067478231732547e-01  -7.9701198659838179e-01  -9.7815419741663745e-01  -8.5799539964965010e-01  -4.3725621940448040e-01  1.6440553983020797e-02  5.4236099965315832e-01  8.0187485897971778e-01  9.8473945728399870e-01  8.2391139271087532e-01  4.6938750623907566e-01  -2.4448366563114245e-02  -1.5982503512738423e-02  -6.6141117249020132e-01  -9.8836796812764627e-01  -1.0429380423595938e+00  -9.2431033286918662e-01  -5.3056299955216146e-01  3.3265016069871763e-02  6.2460535093616898e-01  9.7557623620911882e-01  1.0379973965470368e+00  9.2412028117271672e-01  5.6961663647769900e-01  -1.5982503512738423e-02  -5.8379811250069004e-02  -5.8578354694688806e-01  -8.2208133029434360e-01  -9.2247463255704165e-01  -8.3345051339941401e-01  -5.1011344820172910e-01  6.2610702658236553e-02  6.1839257005587678e-01  8.6412574733481784e-01  9.1785615173349044e-01  8.2098579520307080e-01  4.7414539453102356e-01  -5.8379811250069004e-02  -1.3156725618647905e-02  -3.4473069305208565e-01  -4.7871071902542922e-01  -5.6588587880065133e-01  -4.5986305392626275e-01  -1.9201512082017919e-01  4.0538954781074998e-02  3.1605771825476126e-01  4.3729203514193021e-01  5.2561002487284203e-01  5.1477018000410502e-01  2.0164994221414434e-01  -1.3156725618647905e-02  -2.4953450104504990e-02  -8.0253650862331643e-03  3.2325172306437777e-02  1.4676583177704875e-02  5.7481103032352585e-02  1.4267360809334263e-02  2.3021448346480951e-02  1.9133693121683743e-02  -3.1635258114238750e-02  -3.2754752086239909e-02  -5.4191768907810009e-02  -4.3068173834165654e-02  -2.4953450104504990e-02  -1.6999764925509319e-02  3.3701003682308744e-01  5.3833496376731971e-01  6.7252979606092733e-01  5.9205345121650621e-01  3.5165983577835913e-01  1.6817258482611772e-02  -3.4812058179179428e-01  -5.3622846623861520e-01  -6.1309847939658990e-01  -6.1456415243348550e-01  -3.2022887481018181e-01  -1.6999764925509319e-02  2.7153787179883287e-02  5.2504959474245816e-01  8.0236016577646108e-01  9.8341321908599000e-01  8.1970884755206253e-01  4.6761411213458243e-01  -3.6841650975784741e-02  -5.5091987426440925e-01  -7.9984234069458471e-01  -9.6593444558203667e-01  -8.5679401369526409e-01  -4.3230681030100576e-01  2.7153787179883287e-02  3.3043546924818111e-02  6.2609043886949878e-01  9.7200686601523134e-01  1.0507577517274771e+00  9.1473429660638073e-01  5.6644977499368299e-01  -2.5002896548431429e-02  -6.6743303921897790e-01  -9.7974460662914831e-01  -1.0446360790272287e+00  -9.1888296103499612e-01  -5.3551082777437853e-01  3.3043546924818111e-02  5.7067686185749027e-02  6.1654854932852454e-01  8.6317511926733437e-01  9.2443056658322953e-01  8.3789684160527500e-01  4.6135419519467158e-01  -5.9427160625598406e-02  -5.8646443046202157e-01  -8.2435260760482387e-01  -9.1847590538618762e-01  -8.3655071861558772e-01  -5.1552391592032709e-01  5.7067686185749027e-02  4.8234599195259215e-02  3.1008956993380765e-01  4.3310233369264156e-01  5.2917918080523607e-01  5.2038224832885316e-01  2.0065558275463219e-01  -9.6636389818676640e-03  -3.3901597830607316e-01  -4.7141549083177969e-01  -5.7142851520886584e-01  -4.6253614691453854e-01  -2.0536022874159091e-01  4.8234599195259215e-02  8.7713352943226790e-03  2.3106345516827168e-02  -2.5924350701957255e-02  -3.0282338161326947e-02  -5.6450059368846187e-02  -4.0424822023581254e-02  -1.6579146232609004e-02  -1.7921837739313016e-03  3.6035242537812692e-02  1.0449836263579895e-02  4.6737857343332433e-02  1.2524982593906007e-03  8.7713352943226790e-03  7.0942644348170290e-03  -1.0712720831811809e-02  -1.0417467108466080e-02  3.2676984020877111e-03  -1.0875014752245945e-02  -1.1657484057424537e-02  5.6643302909229073e-04  -5.0040574853345444e-03  1.3655221368653332e-02  3.0053334536116159e-02  1.5913569586729879e-02  9.5469280407438940e-03  7.0942644348170290e-03  -4.8503865306740342e-03  -5.4411670340183682e-02  -5.2109859330768900e-02  -6.0182280571002451e-02  -5.5479475999684114e-02  -3.6305069620150292e-03  1.7015267191895035e-02  5.7717169237684204e-02  9.0268682435119457e-02  4.4510133392548022e-02  2.5417829790150967e-03  1.0987873857104617e-02  -4.8503865306740342e-03  -2.2182498884355022e-02  -8.3837083495922268e-02  -8.7719203395761267e-02  -6.9088643719678225e-02  -2.3512723274067595e-04  4.1841898264445940e-02  1.7197228135601088e-02  2.6156756712136485e-02  8.9168571978275116e-02  6.5694844789324261e-02  2.4404131726910112e-04  1.6120039970160165e-03  -2.2182498884355022e-02  -2.3019748768673801e-02  -5.2689307370572258e-02  -5.9045050021342124e-02  -8.0875911859072946e-03  6.7978650769431798e-02  5.6051952462409439e-02  -1.3002468933084899e-02  4.9382619266300776e-02  7.0031671428184727e-02  4.6930008800371171e-03  -5.5018679292631767e-02  -4.2671356955020688e-02  -2.3019748768673801e-02  -1.8730460665702491e-02  5.2574537087089444e-03  -3.7166076195742966e-03  5.6597670858210172e-02  1.0671953522872547e-01  4.1157767272960243e-02  1.5017568450304268e-02  5.7498817163418661e-02  -4.6061150186011250e-03  -6.0442959982489677e-02  -9.2018950596456386e-02  -8.3443069151110716e-02  -1.8730460665702491e-02  -1.2313439685885776e-02  -3.3880322952064812e-03  2.7628853142647016e-03  4.9441777079972236e-02  8.5430332201732490e-02  5.2263710591992606e-02  1.8565191879024914e-02  5.7906618882484252e-03  -5.2742194649362514e-02  -5.1884819262853779e-02  -5.1603752147803592e-02  -5.2264653285430306e-02  -1.2313439685885776e-02  1.7720091362419897e-04  1.1123446948579021e-02  2.2017279449102631e-02  2.1438828402473530e-02  2.3371325644696770e-02  4.4796462592816529e-03  7.1973906972372182e-03  -5.5553610617318271e-03  -1.3824957333011782e-02  1.4152410930657854e-02  -6.9140842924223598e-03  -2.8275195887123006e-02  1.7720091362419897e-04  1.2138486733979622e-02  4.9059340478830454e-02  8.2532422505877182e-02  5.0455451930587168e-02  6.2641051710267221e-03  2.6488262873822317e-03  5.8328840197801137e-04  -5.1902732538136168e-02  -4.1017883786020289e-02  -3.9244002604773752e-02  -5.7738521560641749e-02  -1.8617062990064551e-03  1.2138486733979622e-02  8.2323128664925751e-04  4.5979354067252190e-02  8.8612620700932759e-02  5.3089346087620677e-02  -9.6803959836179003e-03  -5.3765756103184665e-03  -2.5316900413570625e-02  -8.5369225438467811e-02  -8.3820147463548600e-02  -6.8474254425581166e-02  3.5918874408653830e-03  5.2967505322704396e-02  8.2323128664925751e-04  -1.7927303641743244e-02  5.2690828922995606e-02  6.7393193961475639e-02  -3.3382119157660201e-03  -6.0271234638848682e-02  -5.9069886837034381e-02  -2.4119342453835388e-02  -4.6481452690232163e-02  -5.4272872194293421e-02  -2.2175131896569359e-03  8.1915267168739633e-02  4.8570231134957079e-02  -1.7927303641743244e-02  1.6729236457694779e-02  6.0610077588635576e-02  6.2550839337874864e-03  -6.3424162551101337e-02  -8.7627845484179165e-02  -8.5973557161708930e-02  -3.5254305758399503e-02  1.2102459657007830e-03  -1.8708159668637035e-03  5.0656729952881389e-02  8.2811005616395053e-02  3.9786113336357724e-02  1.6729236457694779e-02  1.7864633576356384e-02  -3.5534055302286361e-03  -5.0435656774880377e-02  -4.4186190121693468e-02  -4.4321539094920703e-02  -5.5783084372100132e-02  -2.2805021631350673e-03  -7.7531615625153598e-05  1.1034130362251154e-02  3.1659000319899044e-02  8.8640407507068184e-02  4.9720552688607075e-02  1.7864633576356384e-02  7.0942644348170290e-03  -1.0712720831811809e-02  -1.0417467108466080e-02  3.2676984020877111e-03  -1.0875014752245945e-02  -1.1657484057424537e-02  5.6643302909229073e-04  -5.0040574853345444e-03  1.3655221368653332e-02  3.0053334536116159e-02  1.5913569586729879e-02  9.5469280407438940e-03  7.0942644348170290e-03  -1.9170322438443393e-02  -3.9086914735798520e-02  -6.2714261012045719e-02  -3.3263409991074279e-02  -3.9983262034112246e-02  1.8787697728798632e-02  1.2960883492135438e-02  2.4768650911154339e-02  6.5299087000665640e-02  1.4565737553189273e-02  2.9368129061629594e-02  -1.2715176001913328e-03  -1.9170322438443393e-02  -1.2614765817401549e-02  1.9945217030896412e-01  5.2357555300735936e-01  5.2970738337299972e-01  4.4025611221966787e-01  3.1151920949738787e-01  4.2847301036146840e-02  -2.0721737282790631e-01  -4.7839953133818103e-01  -5.8136864757315931e-01  -4.7696179916640163e-01  -3.4137373788924597e-01  -1.2614765817401549e-02  -5.4949584782758375e-02  4.5739495947665437e-01  8.4120486786602544e-01  9.2470059432249840e-01  8.5649658172563370e-01  6.1772558721672610e-01  5.8736382451604771e-02  -5.2254619200942076e-01  -8.3430375814402391e-01  -9.1962809437127890e-01  -8.1559612553043992e-01  -5.8047236328231067e-01  -5.4949584782758375e-02  -1.6367279215132990e-02  5.7526482598182749e-01  9.1511705023154555e-01  1.0510363001989769e+00  9.7108730238306373e-01  6.2290201892853470e-01  1.5236081126685121e-02  -5.3563503121872236e-01  -9.1538947252765923e-01  -1.0395933052502331e+00  -9.8558337364407067e-01  -6.5550229285338957e-01  -1.6367279215132990e-02  -1.7058009770181268e-02  4.7187951945261930e-01  8.2594207780872697e-01  9.9401199523553618e-01  7.9308534807138298e-01  5.2418673713512776e-01  2.2652715104326187e-02  -4.3577552641134126e-01  -8.7268590840685401e-01  -9.7208968111807492e-01  -7.9935118146926776e-01  -5.4624495958437291e-01  -1.7058009770181268e-02  1.4488601201689389e-02  3.4123499140229629e-01  5.8520636585081764e-01  6.5535739211915078e-01  5.4338627905929116e-01  3.3266717433210463e-01  7.7955709067665092e-04  -3.1884792982285953e-01  -6.2525965806057771e-01  -6.2814054942082886e-01  -5.2598977475794573e-01  -3.5417143329712786e-01  1.4488601201689389e-02  1.5035502258396272e-02  2.4070201859022720e-02  4.9635610317313450e-02  1.2235326004257387e-02  3.9835915418608175e-02  -1.0051022572446907e-02  -7.9732163084857543e-03  -4.2618063715067135e-02  -3.3206586265099494e-02  -1.0842459585095898e-02  -1.1928783235980171e-02  5.9242740243215675e-03  1.5035502258396272e-02  4.3371054062496965e-02  -2.0224648068313181e-01  -4.6988724844247060e-01  -5.7643834076064793e-01  -4.7505556176815922e-01  -3.4447390277909801e-01  -2.2247629439425348e-02  2.2280673480674518e-01  5.2702081649948396e-01  5.4415149077361202e-01  4.3184993734873556e-01  3.0156385405107655e-01  4.3371054062496965e-02  5.1893276744078107e-02  -5.1605421530716222e-01  -8.3419004845157274e-01  -9.1875800288339560e-01  -8.2978308735040884e-01  -5.8804575012217630e-01  -5.6213579780105181e-02  4.8010435429843618e-01  8.4023105005496179e-01  9.3170220653126334e-01  8.5683215846765670e-01  6.1690792419621843e-01  5.1893276744078107e-02  2.0807850175568854e-02  -5.2932693401124509e-01  -9.3547111343326173e-01  -1.0385898858767908e+00  -9.9698510375949256e-01  -6.7065015806207007e-01  -1.5712874108527598e-02  5.7707923868352873e-01  9.1536787513039763e-01  1.0591465809600886e+00  9.8321918627782168e-01  6.2674873326418390e-01  2.0807850175568854e-02  1.1813498729951339e-02  -4.3855376489141495e-01  -8.5300594766385618e-01  -9.6307378760008655e-01  -7.9539420197221022e-01  -5.5568475042966459e-01  -3.02091913627923