<?xml version="1.0"?>
<VTKFile type="UnstructuredGrid"  version="0.1"  >
<UnstructuredGrid>
<Piece  NumberOfPoints="2197" NumberOfCells="10368">
<Points>
<DataArray  type="Float64"  NumberOfComponents="3"  format="ascii">-3.141592653589793 -3.141592653589793 -3.141592653589793  -2.617993877991494 -3.141592653589793 -3.141592653589793  -2.094395102393196 -3.141592653589793 -3.141592653589793  -1.570796326794897 -3.141592653589793 -3.141592653589793  -1.047197551196598 -3.141592653589793 -3.141592653589793  -0.5235987755982987 -3.141592653589793 -3.141592653589793  0 -3.141592653589793 -3.141592653589793  0.5235987755982987 -3.141592653589793 -3.141592653589793  1.047197551196597 -3.141592653589793 -3.141592653589793  1.570796326794897 -3.141592653589793 -3.141592653589793  2.094395102393196 -3.141592653589793 -3.141592653589793  2.617993877991494 -3.141592653589793 -3.141592653589793  3.141592653589793 -3.141592653589793 -3.141592653589793  -3.141592653589793 -2.617993877991494 -3.141592653589793  -2.617993877991494 -2.617993877991494 -3.141592653589793  -2.094395102393196 -2.617993877991494 -3.141592653589793  -1.570796326794897 -2.617993877991494 -3.141592653589793  -1.047197551196598 -2.617993877991494 -3.141592653589793  -0.5235987755982987 -2.617993877991494 -3.141592653589793  0 -2.617993877991494 -3.141592653589793  0.5235987755982987 -2.617993877991494 -3.141592653589793  1.047197551196597 -2.617993877991494 -3.141592653589793  1.570796326794897 -2.617993877991494 -3.141592653589793  2.094395102393196 -2.617993877991494 -3.141592653589793  2.617993877991494 -2.617993877991494 -3.141592653589793  3.141592653589793 -2.617993877991494 -3.141592653589793  -3.141592653589793 -2.094395102393196 -3.141592653589793  -2.617993877991494 -2.094395102393196 -3.141592653589793  -2.094395102393196 -2.094395102393196 -3.141592653589793  -1.570796326794897 -2.094395102393196 -3.141592653589793  -1.047197551196598 -2.094395102393196 -3.141592653589793  -0.5235987755982987 -2.094395102393196 -3.141592653589793  0 -2.094395102393196 -3.141592653589793  0.5235987755982987 -2.094395102393196 -3.141592653589793  1.047197551196597 -2.094395102393196 -3.141592653589793  1.570796326794897 -2.094395102393196 -3.141592653589793  2.094395102393196 -2.094395102393196 -3.141592653589793  2.617993877991494 -2.094395102393196 -3.141592653589793  3.141592653589793 -2.094395102393196 -3.141592653589793  -3.141592653589793 -1.570796326794897 -3.141592653589793  -2.617993877991494 -1.570796326794897 -3.141592653589793  -2.094395102393196 -1.570796326794897 -3.141592653589793  -1.570796326794897 -1.570796326794897 -3.141592653589793  -1.047197551196598 -1.570796326794897 -3.141592653589793  -0.5235987755982987 -1.570796326794897 -3.141592653589793  0 -1.570796326794897 -3.141592653589793  0.5235987755982987 -1.570796326794897 -3.141592653589793  1.047197551196597 -1.570796326794897 -3.141592653589793  1.570796326794897 -1.570796326794897 -3.141592653589793  2.094395102393196 -1.570796326794897 -3.141592653589793  2.617993877991494 -1.570796326794897 -3.141592653589793  3.141592653589793 -1.570796326794897 -3.141592653589793  -3.141592653589793 -1.047197551196598 -3.141592653589793  -2.617993877991494 -1.047197551196598 -3.141592653589793  -2.094395102393196 -1.047197551196598 -3.141592653589793  -1.570796326794897 -1.047197551196598 -3.141592653589793  -1.047197551196598 -1.047197551196598 -3.141592653589793  -0.5235987755982987 -1.047197551196598 -3.141592653589793  0 -1.047197551196598 -3.141592653589793  0.5235987755982987 -1.047197551196598 -3.141592653589793  1.047197551196597 -1.047197551196598 -3.141592653589793  1.570796326794897 -1.047197551196598 -3.141592653589793  2.094395102393196 -1.047197551196598 -3.141592653589793  2.617993877991494 -1.047197551196598 -3.141592653589793  3.141592653589793 -1.047197551196598 -3.141592653589793  -3.141592653589793 -0.5235987755982987 -3.141592653589793  -2.617993877991494 -0.5235987755982987 -3.141592653589793  -2.094395102393196 -0.5235987755982987 -3.141592653589793  -1.570796326794897 -0.5235987755982987 -3.141592653589793  -1.047197551196598 -0.5235987755982987 -3.141592653589793  -0.5235987755982987 -0.5235987755982987 -3.141592653589793  0 -0.5235987755982987 -3.141592653589793  0.5235987755982987 -0.5235987755982987 -3.141592653589793  1.047197551196597 -0.5235987755982987 -3.141592653589793  1.570796326794897 -0.5235987755982987 -3.141592653589793  2.094395102393196 -0.5235987755982987 -3.141592653589793  2.617993877991494 -0.5235987755982987 -3.141592653589793  3.141592653589793 -0.5235987755982987 -3.141592653589793  -3.141592653589793 0 -3.141592653589793  -2.617993877991494 0 -3.141592653589793  -2.094395102393196 0 -3.141592653589793  -1.570796326794897 0 -3.141592653589793  -1.047197551196598 0 -3.141592653589793  -0.5235987755982987 0 -3.141592653589793  0 0 -3.141592653589793  0.5235987755982987 0 -3.141592653589793  1.047197551196597 0 -3.141592653589793  1.570796326794897 0 -3.141592653589793  2.094395102393196 0 -3.141592653589793  2.617993877991494 0 -3.141592653589793  3.141592653589793 0 -3.141592653589793  -3.141592653589793 0.5235987755982987 -3.141592653589793  -2.617993877991494 0.5235987755982987 -3.141592653589793  -2.094395102393196 0.5235987755982987 -3.141592653589793  -1.570796326794897 0.5235987755982987 -3.141592653589793  -1.047197551196598 0.5235987755982987 -3.141592653589793  -0.5235987755982987 0.5235987755982987 -3.141592653589793  0 0.5235987755982987 -3.141592653589793  0.5235987755982987 0.5235987755982987 -3.141592653589793  1.047197551196597 0.5235987755982987 -3.141592653589793  1.570796326794897 0.5235987755982987 -3.141592653589793  2.094395102393196 0.5235987755982987 -3.141592653589793  2.617993877991494 0.5235987755982987 -3.141592653589793  3.141592653589793 0.5235987755982987 -3.141592653589793  -3.141592653589793 1.047197551196597 -3.141592653589793  -2.617993877991494 1.047197551196597 -3.141592653589793  -2.094395102393196 1.047197551196597 -3.141592653589793  -1.570796326794897 1.047197551196597 -3.141592653589793  -1.047197551196598 1.047197551196597 -3.141592653589793  -0.5235987755982987 1.047197551196597 -3.141592653589793  0 1.047197551196597 -3.141592653589793  0.5235987755982987 1.047197551196597 -3.141592653589793  1.047197551196597 1.047197551196597 -3.141592653589793  1.570796326794897 1.047197551196597 -3.141592653589793  2.094395102393196 1.047197551196597 -3.141592653589793  2.617993877991494 1.047197551196597 -3.141592653589793  3.141592653589793 1.047197551196597 -3.141592653589793  -3.141592653589793 1.570796326794897 -3.141592653589793  -2.617993877991494 1.570796326794897 -3.141592653589793  -2.094395102393196 1.570796326794897 -3.141592653589793  -1.570796326794897 1.570796326794897 -3.141592653589793  -1.047197551196598 1.570796326794897 -3.141592653589793  -0.5235987755982987 1.570796326794897 -3.141592653589793  0 1.570796326794897 -3.141592653589793  0.5235987755982987 1.570796326794897 -3.141592653589793  1.047197551196597 1.570796326794897 -3.141592653589793  1.570796326794897 1.570796326794897 -3.141592653589793  2.094395102393196 1.570796326794897 -3.141592653589793  2.617993877991494 1.570796326794897 -3.141592653589793  3.141592653589793 1.570796326794897 -3.141592653589793  -3.141592653589793 2.094395102393196 -3.141592653589793  -2.617993877991494 2.094395102393196 -3.141592653589793  -2.094395102393196 2.094395102393196 -3.141592653589793  -1.570796326794897 2.094395102393196 -3.141592653589793  -1.047197551196598 2.094395102393196 -3.141592653589793  -0.5235987755982987 2.094395102393196 -3.141592653589793  0 2.094395102393196 -3.141592653589793  0.5235987755982987 2.094395102393196 -3.141592653589793  1.047197551196597 2.094395102393196 -3.141592653589793  1.570796326794897 2.094395102393196 -3.141592653589793  2.094395102393196 2.094395102393196 -3.141592653589793  2.617993877991494 2.094395102393196 -3.141592653589793  3.141592653589793 2.094395102393196 -3.141592653589793  -3.141592653589793 2.617993877991494 -3.141592653589793  -2.617993877991494 2.617993877991494 -3.141592653589793  -2.094395102393196 2.617993877991494 -3.141592653589793  -1.570796326794897 2.617993877991494 -3.141592653589793  -1.047197551196598 2.617993877991494 -3.141592653589793  -0.5235987755982987 2.617993877991494 -3.141592653589793  0 2.617993877991494 -3.141592653589793  0.5235987755982987 2.617993877991494 -3.141592653589793  1.047197551196597 2.617993877991494 -3.141592653589793  1.570796326794897 2.617993877991494 -3.141592653589793  2.094395102393196 2.617993877991494 -3.141592653589793  2.617993877991494 2.617993877991494 -3.141592653589793  3.141592653589793 2.617993877991494 -3.141592653589793  -3.141592653589793 3.141592653589793 -3.141592653589793  -2.617993877991494 3.141592653589793 -3.141592653589793  -2.094395102393196 3.141592653589793 -3.141592653589793  -1.570796326794897 3.141592653589793 -3.141592653589793  -1.047197551196598 3.141592653589793 -3.141592653589793  -0.5235987755982987 3.141592653589793 -3.141592653589793  0 3.141592653589793 -3.141592653589793  0.5235987755982987 3.141592653589793 -3.141592653589793  1.047197551196597 3.141592653589793 -3.141592653589793  1.570796326794897 3.141592653589793 -3.141592653589793  2.094395102393196 3.141592653589793 -3.141592653589793  2.617993877991494 3.141592653589793 -3.141592653589793  3.141592653589793 3.141592653589793 -3.141592653589793  -3.141592653589793 -3.141592653589793 -2.617993877991494  -2.617993877991494 -3.141592653589793 -2.617993877991494  -2.094395102393196 -3.141592653589793 -2.617993877991494  -1.570796326794897 -3.141592653589793 -2.617993877991494  -1.047197551196598 -3.141592653589793 -2.617993877991494  -0.5235987755982987 -3.141592653589793 -2.617993877991494  0 -3.141592653589793 -2.617993877991494  0.5235987755982987 -3.141592653589793 -2.617993877991494  1.047197551196597 -3.141592653589793 -2.617993877991494  1.570796326794897 
[...]
<PointData  Scalars="f_104396"> 
<DataArray  type="Float64"  Name="f_104396"  format="ascii">6.0650410469041342e-02  4.6949474096974621e-02  1.7762273585200484e-02  -5.8945216479293697e-03  -7.3716119873784474e-03  -4.3144575023077454e-02  -6.0670893923463677e-02  -3.9837241401471837e-02  -1.9507580404619678e-02  -4.8220362619002637e-03  9.8768882063609911e-03  4.2465067572388146e-02  6.0650410469041342e-02  4.7896111154858527e-02  -5.4605971117004226e-01  -9.2987975285781166e-01  -1.0586958718048443e+00  -9.8566500041177962e-01  -6.2044814952572969e-01  -4.5993642555928589e-02  5.4677082140474453e-01  9.5086007980999021e-01  1.0626879060461003e+00  9.5702086594386748e-01  6.1212170670859689e-01  4.7896111154858527e-02  1.2354496611593173e-02  -9.5508341153390708e-01  -1.5497728535607076e+00  -1.7769997028954869e+00  -1.6053752698922301e+00  -9.5519247766239523e-01  -1.1378549085668497e-02  9.2315129170946364e-01  1.5520088120506683e+00  1.7760397244989192e+00  1.6115469725804625e+00  9.8540322939060798e-01  1.2354496611593173e-02  6.9198928026116416e-04  -1.0547408784951959e+00  -1.7828386039582249e+00  -2.0441157240084573e+00  -1.7753077582440511e+00  -1.0604055809156014e+00  2.5451590702027932e-03  1.0604324524565958e+00  1.7746225256811690e+00  2.0356519162736468e+00  1.7713654945188295e+00  1.0590404941748972e+00  6.9198928026116416e-04  -1.0378787214184289e-02  -9.5733893256145575e-01  -1.6105765173873210e+00  -1.7737792498128691e+00  -1.5527596151646572e+00  -9.5399004396333220e-01  1.3243964516107791e-02  9.8762878508373653e-01  1.6147649265252526e+00  1.7689882098823129e+00  1.5502816252126219e+00  9.2185245478655797e-01  -1.0378787214184289e-02  -4.3416955564645546e-02  -6.2180435883127139e-01  -9.8277357793690312e-01  -1.0618536753217400e+00  -9.2011818550176183e-01  -5.4421330213500829e-01  4.5560491420062695e-02  6.1915411663631847e-01  9.5396642367315876e-01  1.0611153028347673e+00  9.5008340918237177e-01  5.4549226998113154e-01  -4.3416955564645546e-02  -5.3636473641689102e-02  -4.3197765664189119e-02  -1.3427998276944462e-02  -7.7046555974296285e-05  1.5611142319857987e-02  4.1474156084502944e-02  5.6761178668462114e-02  4.1541819643475912e-02  1.6040214653164367e-02  -4.5540916049336879e-03  -1.2752201434854135e-02  -4.4943652381128817e-02  -5.3636473641689102e-02  -4.6594107728391426e-02  5.4550571085746336e-01  9.5001808976994662e-01  1.0649994926734514e+00  9.5673655289928483e-01  6.1878866736939286e-01  4.0958458186088266e-02  -5.4514694099889860e-01  -9.2400311484048647e-01  -1.0617171087119279e+00  -9.8046088567247902e-01  -6.1767345567925624e-01  -4.6594107728391426e-02  -1.4470541625989970e-02  9.2591422973918291e-01  1.5532224947490729e+00  1.7731232455565047e+00  1.6132798975213025e+00  9.8174219563763121e-01  1.4907330228180006e-02  -9.5477082537906044e-01  -1.5500360738536516e+00  -1.7779829969678387e+00  -1.6059585329312074e+00  -9.5421788843762867e-01  -1.4470541625989970e-02  1.2622805136852280e-03  1.0645840769986137e+00  1.7769249402350620e+00  2.0428502197349432e+00  1.7781232034680476e+00  1.0544491835969987e+00  1.2516371747765785e-03  -1.0618385195588937e+00  -1.7761266515859726e+00  -2.0401046040948945e+00  -1.7756393144276466e+00  -1.0623565511542028e+00  1.2622805136852280e-03  1.2028614684202707e-02  9.8341254474023942e-01  1.6138030577332771e+00  1.7702330038410818e+00  1.5494621081228890e+00  9.2461162266382591e-01  -1.6073729581658067e-02  -9.5831100872261599e-01  -1.5984650101676390e+00  -1.7759136341471646e+00  -1.5486626761820232e+00  -9.4784724722410574e-01  1.2028614684202707e-02  3.9259829985572821e-02  6.2049975572297078e-01  9.5721852728362633e-01  1.0591990664468811e+00  9.5433228466208953e-01  5.5080175855145530e-01  -4.8476674321124576e-02  -6.1598269332996358e-01  -9.8324352520793568e-01  -1.0618386515086067e+00  -9.2352570861455097e-01  -5.4474677295756813e-01  3.9259829985572821e-02  6.0650410469041342e-02  4.6949474096974621e-02  1.7762273585200484e-02  -5.8945216479293697e-03  -7.3716119873784474e-03  -4.3144575023077454e-02  -6.0670893923463677e-02  -3.9837241401471837e-02  -1.9507580404619678e-02  -4.8220362619002637e-03  9.8768882063609911e-03  4.2465067572388146e-02  6.0650410469041342e-02  5.2371352269537659e-02  2.1797278370101873e-02  -7.0608414534637422e-03  -1.9478227482689223e-02  -3.3278654146784145e-02  -5.5970499304312790e-02  -4.3933188455828838e-02  -2.4481555127978838e-02  1.0706381040280481e-02  2.1642443364417740e-02  4.1265577879942658e-02  5.7499592734300817e-02  5.2371352269537659e-02  1.6919202039702656e-02  -4.8736167598659025e-01  -8.1958237571899950e-01  -9.5064521734403773e-01  -8.6772080515453531e-01  -5.2078300374215114e-01  -2.8571489812966547e-02  4.8742643437126343e-01  8.2337604007228093e-01  9.4317908104157100e-01  8.4914209704800536e-01  5.2515081278125719e-01  1.6919202039702656e-02  -8.6062605810265560e-03  -8.2654671368638510e-01  -1.3720160459789044e+00  -1.5820759201809140e+00  -1.3965177944097569e+00  -8.0878731217525912e-01  9.3610052624024560e-03  8.1563830997327091e-01  1.3706246733710250e+00  1.5748744863765307e+00  1.4002202368984340e+00  8.3197808323317468e-01  -8.6062605810265560e-03  -2.2465173471115873e-02  -9.4499459475446679e-01  -1.5738537571181723e+00  -1.7875177452490312e+00  -1.5543281909757998e+00  -9.0927843516309648e-01  2.2951804462259258e-02  9.4780787295838809e-01  1.5829788238167442e+00  1.7889771439987323e+00  1.5405748855774761e+00  9.0690723490729719e-01  -2.2465173471115873e-02  -4.1053243271866227e-02  -8.5467596792562051e-01  -1.4005109240975397e+00  -1.5401001241837573e+00  -1.3494503232548749e+00  -8.0403896440873546e-01  3.7388292546574095e-02  8.6507162831182138e-01  1.3912016069153310e+00  1.5442731974627137e+00  1.3431349577592455e+00  7.8471603623262409e-01  -4.1053243271866227e-02  -5.4593300636917148e-02  -5.2697913510344907e-01  -8.2785660643445080e-01  -9.0875229248408251e-01  -7.8234842976188745e-01  -4.3680838140972017e-01  5.6206971694938004e-02  5.2288982213948842e-01  8.1046944097295537e-01  9.1395924738861145e-01  8.0664271696883949e-01  4.3552795824125090e-01  -5.4593300636917148e-02  -5.0738357398430974e-02  -1.7784864228003270e-02  6.6751141087340515e-03  2.4330057822638605e-02  4.0129313359799565e-02  5.5439795862689684e-02  4.8300705603372060e-02  2.4406141257177504e-02  -6.2921227804912322e-03  -2.1671366000299824e-02  -3.7580707804916451e-02  -5.4533662401247164e-02  -5.0738357398430974e-02  -2.5990352214921630e-02  4.8200742333888547e-01  8.2576444580677255e-01  9.4270928483411787e-01  8.5571817767447689e-01  5.2614780037476705e-01  2.0477796928371327e-02  -4.8793592847985873e-01  -8.1556262346531905e-01  -9.4734654610348257e-01  -8.6642225283158192e-01  -5.2492365090132675e-01  -2.5990352214921630e-02  1.1979273887654879e-02  8.1906135746259412e-01  1.3677694345401685e+00  1.5782930735904321e+00  1.4005786770241844e+00  8.3179486013960002e-01  -1.3839022048355829e-02  -8.2254120883339676e-01  -1.3692706622415207e+00  -1.5833308137298703e+00  -1.3864328733194813e+00  -8.0807668154916690e-01  1.1979273887654879e-02  1.7949959564018063e-02  9.5260917220229235e-01  1.5813801517265744e+00  1.7921652598654383e+00  1.5345952448990092e+00  9.0971598034768009e-01  -2.5749039629950048e-02  -9.4628141012095823e-01  -1.5731178258904341e+00  -1.7884886580051009e+00  -1.5529550329429875e+00  -9.0927318300286564e-01  1.7949959564018063e-02  4.0943958559442120e-02  8.6491766108562451e-01  1.3947842225743077e+00  1.5467747457662275e+00  1.3483529462646788e+00  7.8712427340601832e-01  -4.5174057523748430e-02  -8.5153180681007890e-01  -1.3970222796504561e+00  -1.5452778216296768e+00  -1.3471533678921053e+00  -8.1074188168184047e-01  4.0943958559442120e-02  5.9365629203380829e-02  5.3091429197164031e-01  8.0273214599947729e-01  9.1231341380794095e-01  8.0672323289939973e-01  4.3480617965552770e-01  -4.8131753988105416e-02  -5.2965009389488382e-01  -8.2194803128251204e-01  -9.0469885829713714e-01  -7.8558448596710651e-01  -4.3852554369254315e-01  5.9365629203380829e-02  5.2371352269537659e-02  2.1797278370101873e-02  -7.0608414534637422e-03  -1.9478227482689223e-02  -3.3278654146784145e-02  -5.5970499304312790e-02  -4.3933188455828838e-02  -2.4481555127978838e-02  1.0706381040280481e-02  2.1642443364417740e-02  4.1265577879942658e-02  5.7499592734300817e-02  5.2371352269537659e-02  2.1573907756355939e-02  2.9317722327909961e-03  -2.0158028633338921e-02  -4.0300274583722845e-02  -4.7516853279246214e-02  -4.8911126069823216e-02  -2.4933872371575717e-02  3.1307977724281304e-03  2.6224608424199301e-02  3.6556266547979811e-02  4.6098408403334498e-02  3.5493277248137806e-02  2.1573907756355939e-02  5.5060610206599334e-03  -2.9747697913102916e-01  -5.0139782851399295e-01  -5.8366302478375509e-01  -5.0344190260106736e-01  -3.0197287955572866e-01  2.0783145848541013e-03  2.9104726648658974e-01  5.0183736815111046e-01  5.8415646316080905e-01  5.1070974801804769e-01  2.9484681356795372e-01  5.5060610206599334e-03  -2.2144674942424607e-02  -5.0421615842842127e-01  -8.3953292255537548e-01  -9.5153249621316127e-01  -8.1388748231596986e-01  -4.5502121255696820e-01  1.6769748668054502e-02  5.0726667148682103e-01  8.3739819232123125e-01  9.4945584800698912e-01  8.1360203719590718e-01  4.5446689788277950e-01  -2.2144674942424607e-02  -4.0226848927348562e-02  -5.8045378564389227e-01  -9.5054736134077233e-01  -1.0607511102482463e+00  -9.0056916836821477e-01  -5.1010934541765263e-01  3.9728647582822393e-02  5.8243046531744880e-01  9.5350452479982961e-01  1.0571359526450503e+00  9.0242102621433773e-01  5.0764432344573829e-01  -4.0226848927348562e-02  -4.9879136866477519e-02  -5.1000159637651810e-01  -8.1344511102068606e-01  -9.0219313772082621e-01  -7.6664229000984585e-01  -4.1949914720543879e-01  5.1726149291453132e-02  5.0787791320430242e-01  8.1508519299799509e-01  8.9917255377017824e-01  7.6286435248071838e-01  4.2344265021715888e-01  -4.9879136866477519e-02  -4.1077505479832098e-02  -2.9548037706930014e-01  -4.5975314150989127e-01  -5.0291199498599504e-01  -4.1969832181461209e-01  -2.1137137623129940e-01  4.8219204432353231e-02  2.9835991721367811e-01  4.5442324476327034e-01  5.0881658621710957e-01  4.2004372618066554e-01  2.1497970137032577e-01  -4.1077505479832098e-02  -2.7720053821894734e-02  1.4212431979709222e-03  2.3226478101043932e-02  4.0764962971594446e-02  4.8621488201982623e-02  4.2922035245288252e-02  2.6101207409748379e-02  -9.0996790580012070e-04  -2.2629571042746092e-02  -4.0580080322890601e-02  -4.8830835117119276e-02  -4.8037557433061172e-02  -2.7720053821894734e-02  3.2150380703272841e-04  2.9043380254726547e-01  4.9958060556903527e-01  5.8529112994664068e-01  5.1261725896136034e-01  2.9750466095659217e-01  2.1938747811482647e-03  -2.9272023895868771e-01  -5.0467712759927252e-01  -5.7712191712767769e-01  -5.0614976805713396e-01  -2.9827290376966509e-01  3.2150380703272841e-04  2.1925447563961115e-02  4.9694762931326020e-01  8.3952500155071752e-01  9.4816211275046058e-01  8.1091286340765956e-01  4.5348851555752973e-01  -2.4170904823515683e-02  -5.0545390175764027e-01  -8.3738396096106071e-01  -9.4977139934641153e-01  -8.1046054610758389e-01  -4.5373284732612984e-01  2.1925447563961115e-02  4.1530292335098223e-02  5.8045469966132257e-01  9.5132476749805372e-01  1.0626988615595236e+00  9.0047895144251111e-01  5.0527460809945024e-01  -4.5784620384716396e-02  -5.8394456885646229e-01  -9.4837137563217011e-01  -1.0601840644840570e+00  -8.9869852041045428e-01  -5.1195775274994704e-01  4.1530292335098223e-02  4.7785907478579678e-02  5.0860754884788395e-01  8.1275663315653102e-01  9.0006541009902929e-01  7.7181427627383592e-01  4.1921056406414009e-01  -5.0470902973022105e-02  -5.0656605037315383e-01  -8.1278418374592620e-01  -9.0115150310254488e-01  -7.6680824224292177e-01  -4.2129282588884959e-01  4.7785907478579678e-02  5.2164496409223896e-02  2.9250029422833218e-01  4.5673901155788993e-01  5.1082324155241388e-01  4.1869178381387284e-01  2.1588823045858263e-01  -3.7408644912823051e-02  -2.9431573641518227e-01  -4.5867658745770412e-01  -5.0393279393271906e-01  -4.1950139120441071e-01  -2.1860875583271697e-01  5.2164496409223896e-02  2.1573907756355939e-02  2.9317722327909961e-03  -2.0158028633338921e-02  -4.0300274583722845e-02  -4.7516853279246214e-02  -4.8911126069823216e-02  -2.4933872371575717e-02  3.1307977724281304e-03  2.6224608424199301e-02  3.6556266547979811e-02  4.6098408403334498e-02  3.5493277248137806e-02  2.1573907756355939e-02  3.4917202251290654e-03  -2.1066058490461205e-02  -3.9286986663768377e-02  -5.0032752863957315e-02  -4.0906756968812810e-02  -2.2631317071354601e-02  -2.6554883331642720e-04  1.8416272474709110e-02  3.8520294755600606e-02  5.1645635309509795e-02  3.7090981022363551e-02  2.5643219282615048e-02  3.4917202251290654e-03  -2.2475835793288074e-02  -4.4325463721981387e-02  -5.5308806793225404e-02  -4.6776484582682139e-02  -2.6103704151342239e-02  -1.4510469437048908e-03  2.3595147422952156e-02  4.6209475796040136e-02  5.4609174027538031e-02  3.9511356686844953e-02  2.2024561367987885e-02  4.5974485966398509e-03  -2.2475835793288074e-02  -4.2175011019895570e-02  -5.2214069462298264e-02  -4.7330341771882903e-02  -2.9909609451104296e-02  -6.5403340179397693e-04  2.0586890871340850e-02  4.3158964214782262e-02  4.4816889099294141e-02  4.9673699688643082e-02  3.1501527700227509e-02  -9.9463248766989368e-04  -1.8591647682288076e-02  -4.2175011019895570e-02  -4.9264137492825981e-02  -4.3199451237331800e-02  -2.9517383667091168e-02  -2.8594714136130632e-03  2.9165732760038976e-02  4.6277299239359769e-02  4.4842351809625702e-02  4.2183066239052422e-02  3.0053560483768865e-02  9.4155620016197952e-04  -2.7416971540762450e-02  -3.9981716835461034e-02  -4.9264137492825981e-02  -3.9032377340171891e-02  -1.8780550764062136e-02  -2.3163177718316039e-03  2.8449438025871361e-02  5.5091962249121051e-02  5.1058117104938641e-02  4.3330489450062494e-02  2.4761920058565867e-02  -8.3981294308121512e-04  -2.5562775768457904e-02  -4.9223716506283037e-02  -5.2740238027425147e-02  -3.9032377340171891e-02  -2.7399213750943782e-02  -1.5480274908851923e-03  2.1782706056675795e-02  4.2767463784552803e-02  5.4023656778336357e-02  4.3644751484754919e-02  2.4479675460366140e-02  3.5891351765666366e-03  -2.4625188645660146e-02  -4.3751781150533756e-02  -5.5010122692310183e-02  -4.3769542267384227e-02  -2.7399213750943782e-02  1.0593372117693259e-03  2.6620457641732525e-02  4.0200176333163744e-02  4.8008800724632893e-02  4.1976372048955560e-02  2.2422608481125175e-02  2.7678630428407971e-03  -2.0282995651242405e-02  -4.0684294073261622e-02  -4.6837767890255760e-02  -3.8183223176385964e-02  -2.9268678633002015e-02  1.0593372117693259e-03  2.1195298310944272e-02  4.2336538439330162e-02  5.0615365822692542e-02  4.5546997012585640e-02  2.2185957082726374e-02  1.5816775126925263e-03  -1.9931929344970897e-02  -4.2902940672786674e-02  -5.1811643745642080e-02  -3.8319081101821695e-02  -2.6189622206622135e-02  3.5939573250009935e-04  2.1195298310944272e-02  3.7572910976474284e-02  5.0393447072159613e-02  4.9611309259559297e-02  2.6261166424888689e-02  -4.6571563814603988e-03  -2.2225601113883432e-02  -4.3953352279144875e-02  -5.5149092583665765e-02  -4.6636886102405586e-02  -2.9462153165739590e-02  2.0635909784137638e-03  2.4382465040766192e-02  3.7572910976474284e-02  4.2657070941581957e-02  4.3575978782626534e-02  2.8858068572613253e-02  -1.1208225607418612e-03  -2.9028662863141215e-02  -4.7599947207263717e-02  -4.7099115483797069e-02  -4.2953214425904440e-02  -2.6541769108166222e-02  2.0940577759504420e-04  3.3272721049664195e-02  4.3400621645344147e-02  4.2657070941581957e-02  4.3130551526608253e-02  2.8314252366021097e-02  1.9689780437532247e-03  -2.7003802848161999e-02  -4.8935124462092749e-02  -5.3552586897880991e-02  -4.7114018829286709e-02  -1.8456396648821250e-02  -1.0885459783547228e-03  2.8122338134931160e-02  4.6645111016623317e-02  4.9662799471244849e-02  4.3130551526608253e-02  2.4125391291211856e-02  -1.7604948226164199e-03  -2.2963620896121899e-02  -4.1018769379467794e-02  -5.0991619382413207e-02  -4.4275610311020341e-02  -2.2380291850992686e-02  3.0066029497379117e-04  2.4924363018345858e-02  3.6587111583804226e-02  5.3591694890002629e-02  4.1679057161662904e-02  2.4125391291211856e-02  3.4917202251290654e-03  -2.1066058490461205e-02  -3.9286986663768377e-02  -5.0032752863957315e-02  -4.0906756968812810e-02  -2.2631317071354601e-02  -2.6554883331642720e-04  1.8416272474709110e-02  3.8520294755600606e-02  5.1645635309509795e-02  3.7090981022363551e-02  2.5643219282615048e-02  3.4917202251290654e-03  -2.5568981470304713e-02  -4.5388916519533126e-02  -5.2536425201625749e-02  -4.0653359854267733e-02  -2.6090626675597004e-02  4.9733834437457839e-04  2.0857349002089548e-02  4.5701343067380343e-02  5.0456078464790069e-02  4.4338687726198027e-02  2.2200201688408798e-02  5.1971257696120749e-03  -2.5568981470304713e-02  -4.1025923408709253e-02  2.1482676629860639e-01  4.2233363217719450e-01  5.0877426076840404e-01  4.5691119672404606e-01  2.9429096201952798e-01  5.1278746463015938e-02  -2.1815523202929418e-01  -4.2466259848477511e-01  -5.1118877290520881e-01  -4.5731659474774128e-01  -2.9514992317053901e-01  -4.1025923408709253e-02  -4.6710154794726899e-02  4.1876489600389161e-01  7.6936001059253800e-01  9.0125158609222855e-01  8.1353722958924035e-01  5.0883692912800937e-01  4.6701625618124548e-02  -4.2413215814081145e-01  -7.6648413704500951e-01  -9.0087834179413750e-01  -8.1096946574661877e-01  -5.0849819926456907e-01  -4.6710154794726899e-02  -4.1228591699454649e-02  5.0482357440595838e-01  8.9891774158548532e-01  1.0646502475350628e+00  9.5165349237119967e-01  5.7834398682068855e-01  3.3799111967431836e-02  -5.1144132349089577e-01  -8.9700311300706304e-01  -1.0595860536998383e+00  -9.4810000652533766e-01  -5.7902983385156492e-01  -4.1228591699454649e-02  -1.8257754887714667e-02  4.5529372014982772e-01  8.1560074464878085e-01  9.5365037975860101e-01  8.3411640335523418e-01  4.9737550683406462e-01  2.2011506012386019e-02  -4.5671651800378343e-01  -8.1482922756765452e-01  -9.5303771828861239e-01  -8.3662733380386889e-01  -5.0256022904364861e-01  -1.8257754887714667e-02  -5.4116025005780069e-04  2.9584691770946991e-01  5.0805908024943003e-01  5.7862249296966051e-01  5.0095752741208532e-01  2.9133127273946913e-01  4.3023983404136936e-03  -2.9759130978703296e-01  -5.1208238114537641e-01  -5.8206907377611239e-01  -5.0059344013843066e-01  -2.9635435785518938e-01  -5.4116025005780069e-04  2.5278655479573267e-02  4.5410513497744318e-02  4.6196873892807307e-02  4.0392890098945387e-02  2.6068007937744123e-02  2.0066803211884008e-03  -2.1556167565586884e-02  -4.4253219773771280e-02  -4.3422896270889660e-02  -3.0060733381941832e-02  -1.8176537442478255e-02  -3.3189435215796046e-03  2.5278655479573267e-02  4.9921528753945871e-02  -2.1678719307595123e-01  -4.2463050894701304e-01  -5.0406422581551846e-01  -4.5987406835701305e-01  -2.9681670955019196e-01  -4.2416754392314029e-02  2.1817898708321318e-01  4.2633979651127374e-01  5.0991754024987401e-01  4.5575986924343648e-01  2.8986881913885049e-01  4.9921528753945871e-02  4.6167650221259356e-02  -4.2056209821471763e-01  -7.6584005267762412e-01  -9.0037592602320915e-01  -8.1467148209901286e-01  -5.0868766699190060e-01  -5.1732698514221472e-02  4.2903275004724700e-01  7.6751061780238095e-01  9.0601709928958196e-01  8.1137555750750279e-01  5.0960203029730877e-01  4.6167650221259356e-02  3.3769299907392920e-02  -5.0724097212086039e-01  -9.0509656035785291e-01  -1.0598332743068144e+00  -9.5171692979713962e-01  -5.8413913424540576e-01  -4.0756058649797339e-02  5.0779785278847012e-01  9.0146181896756272e-01  1.0648775997058391e+00  9.5900450358755918e-01  5.8223782310088001e-01  3.3769299907392920e-02  1.6741630733147116e-02  -4.5840244937489366e-01  -8.1027416901844940e-01  -9.4924778350396743e-01  -8.3944523492334977e-01  -5.0549748695614560e-01  -2.4588705332969623