<?xml version="1.0"?>
<VTKFile type="UnstructuredGrid"  version="0.1"  >
<UnstructuredGrid>
<Piece  NumberOfPoints="9261" NumberOfCells="48000">
<Points>
<DataArray  type="Float64"  NumberOfComponents="3"  format="ascii">-3.141592653589793 -3.141592653589793 -3.141592653589793  -2.827433388230814 -3.141592653589793 -3.141592653589793  -2.513274122871834 -3.141592653589793 -3.141592653589793  -2.199114857512855 -3.141592653589793 -3.141592653589793  -1.884955592153876 -3.141592653589793 -3.141592653589793  -1.570796326794897 -3.141592653589793 -3.141592653589793  -1.256637061435917 -3.141592653589793 -3.141592653589793  -0.9424777960769379 -3.141592653589793 -3.141592653589793  -0.6283185307179586 -3.141592653589793 -3.141592653589793  -0.3141592653589793 -3.141592653589793 -3.141592653589793  0 -3.141592653589793 -3.141592653589793  0.3141592653589789 -3.141592653589793 -3.141592653589793  0.6283185307179586 -3.141592653589793 -3.141592653589793  0.9424777960769379 -3.141592653589793 -3.141592653589793  1.256637061435917 -3.141592653589793 -3.141592653589793  1.570796326794897 -3.141592653589793 -3.141592653589793  1.884955592153876 -3.141592653589793 -3.141592653589793  2.199114857512855 -3.141592653589793 -3.141592653589793  2.513274122871834 -3.141592653589793 -3.141592653589793  2.827433388230814 -3.141592653589793 -3.141592653589793  3.141592653589793 -3.141592653589793 -3.141592653589793  -3.141592653589793 -2.827433388230814 -3.141592653589793  -2.827433388230814 -2.827433388230814 -3.141592653589793  -2.513274122871834 -2.827433388230814 -3.141592653589793  -2.199114857512855 -2.827433388230814 -3.141592653589793  -1.884955592153876 -2.827433388230814 -3.141592653589793  -1.570796326794897 -2.827433388230814 -3.141592653589793  -1.256637061435917 -2.827433388230814 -3.141592653589793  -0.9424777960769379 -2.827433388230814 -3.141592653589793  -0.6283185307179586 -2.827433388230814 -3.141592653589793  -0.3141592653589793 -2.827433388230814 -3.141592653589793  0 -2.827433388230814 -3.141592653589793  0.3141592653589789 -2.827433388230814 -3.141592653589793  0.6283185307179586 -2.827433388230814 -3.141592653589793  0.9424777960769379 -2.827433388230814 -3.141592653589793  1.256637061435917 -2.827433388230814 -3.141592653589793  1.570796326794897 -2.827433388230814 -3.141592653589793  1.884955592153876 -2.827433388230814 -3.141592653589793  2.199114857512855 -2.827433388230814 -3.141592653589793  2.513274122871834 -2.827433388230814 -3.141592653589793  2.827433388230814 -2.827433388230814 -3.141592653589793  3.141592653589793 -2.827433388230814 -3.141592653589793  -3.141592653589793 -2.513274122871834 -3.141592653589793  -2.827433388230814 -2.513274122871834 -3.141592653589793  -2.513274122871834 -2.513274122871834 -3.141592653589793  -2.199114857512855 -2.513274122871834 -3.141592653589793  -1.884955592153876 -2.513274122871834 -3.141592653589793  -1.570796326794897 -2.513274122871834 -3.141592653589793  -1.256637061435917 -2.513274122871834 -3.141592653589793  -0.9424777960769379 -2.513274122871834 -3.141592653589793  -0.6283185307179586 -2.513274122871834 -3.141592653589793  -0.3141592653589793 -2.513274122871834 -3.141592653589793  0 -2.513274122871834 -3.141592653589793  0.3141592653589789 -2.513274122871834 -3.141592653589793  0.6283185307179586 -2.513274122871834 -3.141592653589793  0.9424777960769379 -2.513274122871834 -3.141592653589793  1.256637061435917 -2.513274122871834 -3.141592653589793  1.570796326794897 -2.513274122871834 -3.141592653589793  1.884955592153876 -2.513274122871834 -3.141592653589793  2.199114857512855 -2.513274122871834 -3.141592653589793  2.513274122871834 -2.513274122871834 -3.141592653589793  2.827433388230814 -2.513274122871834 -3.141592653589793  3.141592653589793 -2.513274122871834 -3.141592653589793  -3.141592653589793 -2.199114857512855 -3.141592653589793  -2.827433388230814 -2.199114857512855 -3.141592653589793  -2.513274122871834 -2.199114857512855 -3.141592653589793  -2.199114857512855 -2.199114857512855 -3.141592653589793  -1.884955592153876 -2.199114857512855 -3.141592653589793  -1.570796326794897 -2.199114857512855 -3.141592653589793  -1.256637061435917 -2.199114857512855 -3.141592653589793  -0.9424777960769379 -2.199114857512855 -3.141592653589793  -0.6283185307179586 -2.199114857512855 -3.141592653589793  -0.3141592653589793 -2.199114857512855 -3.141592653589793  0 -2.199114857512855 -3.141592653589793  0.3141592653589789 -2.199114857512855 -3.141592653589793  0.6283185307179586 -2.199114857512855 -3.141592653589793  0.9424777960769379 -2.199114857512855 -3.141592653589793  1.256637061435917 -2.199114857512855 -3.141592653589793  1.570796326794897 -2.199114857512855 -3.141592653589793  1.884955592153876 -2.199114857512855 -3.141592653589793  2.199114857512855 -2.199114857512855 -3.141592653589793  2.513274122871834 -2.199114857512855 -3.141592653589793  2.827433388230814 -2.199114857512855 -3.141592653589793  3.141592653589793 -2.199114857512855 -3.141592653589793  -3.141592653589793 -1.884955592153876 -3.141592653589793  -2.827433388230814 -1.884955592153876 -3.141592653589793  -2.513274122871834 -1.884955592153876 -3.141592653589793  -2.199114857512855 -1.884955592153876 -3.141592653589793  -1.884955592153876 -1.884955592153876 -3.141592653589793  -1.570796326794897 -1.884955592153876 -3.141592653589793  -1.256637061435917 -1.884955592153876 -3.141592653589793  -0.9424777960769379 -1.884955592153876 -3.141592653589793  -0.6283185307179586 -1.884955592153876 -3.141592653589793  -0.3141592653589793 -1.884955592153876 -3.141592653589793  0 -1.884955592153876 -3.141592653589793  0.3141592653589789 -1.884955592153876 -3.141592653589793  0.6283185307179586 -1.884955592153876 -3.141592653589793  0.9424777960769379 -1.884955592153876 -3.141592653589793  1.256637061435917 -1.884955592153876 -3.141592653589793  1.570796326794897 -1.884955592153876 -3.141592653589793  1.884955592153876 -1.884955592153876 -3.141592653589793  2.199114857512855 -1.884955592153876 -3.141592653589793  2.513274122871834 -1.884955592153876 -3.141592653589793  2.827433388230814 -1.884955592153876 -3.141592653589793  3.141592653589793 -1.884955592153876 -3.141592653589793  -3.141592653589793 -1.570796326794897 -3.141592653589793  -2.827433388230814 -1.570796326794897 -3.141592653589793  -2.513274122871834 -1.570796326794897 -3.141592653589793  -2.199114857512855 -1.570796326794897 -3.141592653589793  -1.884955592153876 -1.570796326794897 -3.141592653589793  -1.570796326794897 -1.570796326794897 -3.141592653589793  -1.256637061435917 -1.570796326794897 -3.141592653589793  -0.9424777960769379 -1.570796326794897 -3.141592653589793  -0.6283185307179586 -1.570796326794897 -3.141592653589793  -0.3141592653589793 -1.570796326794897 -3.141592653589793  0 -1.570796326794897 -3.141592653589793  0.3141592653589789 -1.570796326794897 -3.141592653589793  0.6283185307179586 -1.570796326794897 -3.141592653589793  0.9424777960769379 -1.570796326794897 -3.141592653589793  1.256637061435917 -1.570796326794897 -3.141592653589793  1.570796326794897 -1.570796326794897 -3.141592653589793  1.884955592153876 -1.570796326794897 -3.141592653589793  2.199114857512855 -1.570796326794897 -3.141592653589793  2.513274122871834 -1.570796326794897 -3.141592653589793  2.827433388230814 -1.570796326794897 -3.141592653589793  3.141592653589793 -1.570796326794897 -3.141592653589793  -3.141592653589793 -1.256637061435917 -3.141592653589793  -2.827433388230814 -1.256637061435917 -3.141592653589793  -2.513274122871834 -1.256637061435917 -3.141592653589793  -2.199114857512855 -1.256637061435917 -3.141592653589793  -1.884955592153876 -1.256637061435917 -3.141592653589793  -1.570796326794897 -1.256637061435917 -3.141592653589793  -1.256637061435917 -1.256637061435917 -3.141592653589793  -0.9424777960769379 -1.256637061435917 -3.141592653589793  -0.6283185307179586 -1.256637061435917 -3.141592653589793  -0.3141592653589793 -1.256637061435917 -3.141592653589793  0 -1.256637061435917 -3.141592653589793  0.3141592653589789 -1.256637061435917 -3.141592653589793  0.6283185307179586 -1.256637061435917 -3.141592653589793  0.9424777960769379 -1.256637061435917 -3.141592653589793  1.256637061435917 -1.256637061435917 -3.141592653589793  1.570796326794897 -1.256637061435917 -3.141592653589793  1.884955592153876 -1.256637061435917 -3.141592653589793  2.199114857512855 -1.256637061435917 -3.141592653589793  2.513274122871834 -1.256637061435917 -3.141592653589793  2.827433388230814 -1.256637061435917 -3.141592653589793  3.141592653589793 -1.256637061435917 -3.141592653589793  -3.141592653589793 -0.9424777960769379 -3.141592653589793  -2.827433388230814 -0.9424777960769379 -3.141592653589793  -2.513274122871834 -0.9424777960769379 -3.141592653589793  -2.199114857512855 -0.9424777960769379 -3.141592653589793  -1.884955592153876 -0.9424777960769379 -3.141592653589793  -1.570796326794897 -0.9424777960769379 -3.141592653589793  -1.256637061435917 -0.9424777960769379 -3.141592653589793  -0.9424777960769379 -0.9424777960769379 -3.141592653589793  -0.6283185307179586 -0.9424777960769379 -3.141592653589793  -0.3141592653589793 -0.9424777960769379 -3.141592653589793  0 -0.9424777960769379 -3.141592653589793  0.3141592653589789 -0.9424777960769379 -3.141592653589793  0.6283185307179586 -0.9424777960769379 -3.141592653589793  0.9424777960769379 -0.9424777960769379 -3.141592653589793  1.256637061435917 -0.9424777960769379 -3.141592653589793  1.570796326794897 -0.9424777960769379 -3.141592653589793  1.884955592153876 -0.9424777960769379 -3.141592653589793  2.199114857512855 -0.9424777960769379 -3.141592653589793  2.513274122871834 -0.9424777960769379 -3.141592653589793  2.827433388230814 -0.9424777960769379 -3.141592653589793  3.141592653589793 -0.9424777960769379 -3.141592653589793  -3.141592653589793 -0.6283185307179586 -3.141592653589793  -2.827433388230814 -0.6283185307179586 -3.141592653589793  -2.513274122871834 -0.6283185307179586 -3.141592653589793  -2.19
[...]
<PointData  Scalars="f_1028"> 
<DataArray  type="Float64"  Name="f_1028"  format="ascii">1.7606578747101070e-02  1.6573468030954983e-02  1.3709262203379296e-02  9.6103241581323006e-03  4.9902198882911496e-03  1.6886129145274553e-05  -4.9064243411540837e-03  -9.4424256858759228e-03  -1.3425500976814202e-02  -1.6432069326615041e-02  -1.7639398258845793e-02  -1.6427421074939882e-02  -1.3436061303977122e-02  -9.4753962693626490e-03  -4.9138946538473541e-03  -2.3702041393025646e-05  4.9475285659933222e-03  9.6171466340463467e-03  1.3679412328891210e-02  1.6540003713623845e-02  1.7606578747101070e-02  1.6476857573139679e-02  -1.8384350749255279e-01  -3.6412571415783429e-01  -5.0657481169216212e-01  -5.9920135628533988e-01  -6.3456848384080966e-01  -6.0973545446960420e-01  -5.2619632822123541e-01  -3.9060537977331200e-01  -2.1491147250843223e-01  -1.6610039942798676e-02  1.8386057724809582e-01  3.6497139180226063e-01  5.0827528977411496e-01  6.0046932102159600e-01  6.3447452573571383e-01  6.0842361849757887e-01  5.2486730361725442e-01  3.9002786079788071e-01  2.1490905152623863e-01  1.6476857573139679e-02  1.3415263645147106e-02  -3.6502176370030676e-01  -7.0387267378762519e-01  -9.6978924027934310e-01  -1.1399846093508252e+00  -1.2014308994757803e+00  -1.1492343672116350e+00  -9.8661185692866826e-01  -7.2562905921288090e-01  -3.9002602995106389e-01  -1.3695757874058866e-02  3.6407545107462141e-01  7.0382606085231458e-01  9.7106583160247117e-01  1.1413257400858745e+00  1.2013689715563725e+00  1.1479601192757616e+00  9.8543186257106463e-01  7.2568162738405839e-01  3.9062455924464962e-01  1.3415263645147106e-02  9.4672913977055084e-03  -5.0823640891307686e-01  -9.7111408790716791e-01  -1.3332122337072800e+00  -1.5634676983697489e+00  -1.6446858720792039e+00  -1.5705068655306078e+00  -1.3449656672484200e+00  -9.8543021751844728e-01  -5.2485445461884583e-01  -9.6581029576990312e-03  5.0656321776330282e-01  9.6981079386942082e-01  1.3332042984769377e+00  1.5640279362164664e+00  1.6447891654733768e+00  1.5700337729353140e+00  1.3449830740078281e+00  9.8657509799333976e-01  5.2619214384279189e-01  9.4672913977055084e-03  4.9088973926408640e-03  -6.0042972006447681e-01  -1.1413300738701708e+00  -1.5640594847032494e+00  -1.8323973656902641e+00  -1.9257351536840586e+00  -1.8364271754951973e+00  -1.5700314192575398e+00  -1.1480061169598716e+00  -6.0841952152134049e-01  -4.9964735770309798e-03  5.9921061163480649e-01  1.1400266042979827e+00  1.5635214725002167e+00  1.8323719913787619e+00  1.9257945302929205e+00  1.8364180776742203e+00  1.5704584550202780e+00  1.1491965144176532e+00  6.0971799496576917e-01  4.9088973926408640e-03  3.3005266447552925e-05  -6.3445735834971773e-01  -1.2014027045001769e+00  -1.6447595880700920e+00  -1.9257726358569958e+00  -2.0219321689193825e+00  -1.9257745912412894e+00  -1.6447410054165952e+00  -1.2013825600483772e+00  -6.3447916249521608e-01  -3.4823708725120801e-05  6.3460740742382937e-01  1.2014077498726510e+00  1.6447312250495847e+00  1.9257520636090555e+00  2.0219916683283312e+00  1.9257471923695635e+00  1.6447021354852362e+00  1.2013927725791864e+00  6.3454033219651051e-01  3.3005266447552925e-05  -4.9264498846184291e-03  -6.0839145919996507e-01  -1.1480070921411607e+00  -1.5700200591725721e+00  -1.8364098118414625e+00  -1.9257128379189330e+00  -1.8323830205763543e+00  -1.5640380826419524e+00  -1.1413303337641889e+00  -6.0045064308560281e-01  4.8726340246801935e-03  6.0971770912944900e-01  1.1492798802638620e+00  1.5705119059457606e+00  1.8364517927846884e+00  1.9257589370575552e+00  1.8324060536134998e+00  1.5635420912437650e+00  1.1400035260045371e+00  5.9917124244533460e-01  -4.9264498846184291e-03  -9.6396297312085714e-03  -5.2484533777512077e-01  -9.8545844962474372e-01  -1.3449874478506478e+00  -1.5704808393930612e+00  -1.6446914079339414e+00  -1.5634768818336107e+00  -1.3331715233918020e+00  -9.7107841753068902e-01  -5.0826399823845170e-01  9.4283695907487423e-03  5.2622980536799557e-01  9.8662112359125831e-01  1.3449092309194870e+00  1.5700503917246560e+00  1.6447766992333601e+00  1.5640360868255467e+00  1.3332081689192974e+00  9.6973363383606548e-01  5.0659984026526361e-01  -9.6396297312085714e-03  -1.3677683553866829e-02  -3.9003127954236949e-01  -7.2565428719186598e-01  -9.8659441901191380e-01  -1.1492646732626917e+00  -1.2014725485809756e+00  -1.1400331161009134e+00  -9.6974092950327295e-01  -7.0383444897637626e-01  -3.6500643444383962e-01  1.3431736402136008e-02  3.9060811482909852e-01  7.2564457453195197e-01  9.8539293734367273e-01  1.1479513682784328e+00  1.2013715746541584e+00  1.1413156283252950e+00  9.7109933805668225e-01  7.0384839635858698e-01  3.6408792049622707e-01  -1.3677683553866829e-02  -1.6581164176279476e-02  -2.1491687297245232e-01  -3.9059248372259670e-01  -5.2621624452866500e-01  -6.0970915240314616e-01  -6.3456972560925728e-01  -5.9918724481329355e-01  -5.0662353257136361e-01  -3.6410502767129976e-01  -1.8384863280009556e-01  1.6446171453177082e-02  2.1489734113073194e-01  3.9000823290927833e-01  5.2487410459094685e-01  6.0850228000339379e-01  6.3447365104000042e-01  6.0053443203427448e-01  5.0825988998833038e-01  3.6499420193704313e-01  1.8383902101562377e-01  -1.6581164176279476e-02  -1.7609649024128343e-02  -1.6423030123788467e-02  -1.3424088699756516e-02  -9.4587089524717331e-03  -4.8941871692199162e-03  2.1096805433576170e-05  4.9525964287746521e-03  9.6519521844605181e-03  1.3710139507324663e-02  1.6545639766337734e-02  1.7591689933064484e-02  1.6529379716933072e-02  1.3683929160981536e-02  9.6424564534748000e-03  4.9790673165348836e-03  2.9045965846278018e-05  -4.9335565721182386e-03  -9.4901209808180443e-03  -1.3430409467584673e-02  -1.6440689052432195e-02  -1.7609649024128343e-02  -1.6499103453594958e-02  1.8381102409173466e-01  3.6498623926234147e-01  5.0827807259450275e-01  6.0045198146401035e-01  6.3448151644830153e-01  6.0846820300825155e-01  5.2485061397865518e-01  3.9001902316967291e-01  2.1487654527937972e-01  1.6426206410465022e-02  -1.8386234484395500e-01  -3.6410864533859083e-01  -5.0660282498320719e-01  -5.9922981469376724e-01  -6.3453629157013880e-01  -6.0969396897174777e-01  -5.2621487331329531e-01  -3.9061908067318418e-01  -2.1495596349835938e-01  -1.6499103453594958e-02  -1.3682917642690456e-02  3.6407329781989956e-01  7.0384184097660119e-01  9.7106190643435808e-01  1.1413412855457885e+00  1.2013862289497632e+00  1.1479434271718056e+00  9.8540183351561106e-01  7.2563628599355956e-01  3.9061470431678535e-01  1.3454390957972516e-02  -3.6502123891827282e-01  -7.0382099775331930e-01  -9.6977472531270281e-01  -1.1399705624481187e+00  -1.2014491615992724e+00  -1.1492342319900024e+00  -9.8660728819578702e-01  -7.2561361165780125e-01  -3.9002677777857370e-01  -1.3682917642690456e-02  -9.6493751204856665e-03  5.0662672663280561e-01  9.6975865053788080e-01  1.3331890634984491e+00  1.5640737182145734e+00  1.6447849848564449e+00  1.5700374526657055e+00  1.3449725236049290e+00  9.8656895525366028e-01  5.2622583702129755e-01  9.4645255666684462e-03  -5.0830943583595778e-01  -9.7107080875501417e-01  -1.3331972595959600e+00  -1.5635434980063772e+00  -1.6446839155312372e+00  -1.5705109652684262e+00  -1.3450056748809143e+00  -9.8543646809472940e-01  -5.2490520447953759e-01  -9.6493751204856665e-03  -4.9642249720848889e-03  5.9919963159349621e-01  1.1400120466552339e+00  1.5635047513853189e+00  1.8323909345720315e+00  1.9257776820073398e+00  1.8364488154155969e+00  1.5705031170358459e+00  1.1492278584704334e+00  6.0970504147789728e-01  4.9272055523624124e-03  -6.0051937027454882e-01  -1.1412779270698750e+00  -1.5640834398137553e+00  -1.8323443943127968e+00  -1.9257247534903494e+00  -1.8364381958422635e+00  -1.5699941265784791e+00  -1.1479908115427433e+00  -6.0844063595867104e-01  -4.9642249720848889e-03  2.0376950041691969e-05  6.3455163001729820e-01  1.2014242899870946e+00  1.6446847238488147e+00  1.9257608337138612e+00  2.0219747602578013e+00  1.9257117928251777e+00  1.6446963361932971e+00  1.2014008903778559e+00  6.3454668482455479e-01  3.9657634298477237e-05  -6.3452429588725301e-01  -1.2013554920325942e+00  -1.6447620028744749e+00  -1.9258137852977770e+00  -2.0219216905710593e+00  -1.9258065486780049e+00  -1.6447683688438324e+00  -1.2012906838703794e+00  -6.3451921273184586e-01  2.0376950041691969e-05  4.9347389575704432e-03  6.0972094388451958e-01  1.1492565169296560e+00  1.5704770335133287e+00  1.8364554953192465e+00  1.9258362767988477e+00  1.8324091775433518e+00  1.5634580321087748e+00  1.1400822144658098e+00  5.9918360458607900e-01  -4.9195263831548078e-03  -6.0849132203738132e-01  -1.1479278592165938e+00  -1.5700980787590175e+00  -1.8364298641200343e+00  -1.9257427696255576e+00  -1.8323664961529722e+00  -1.5640590272061030e+00  -1.1413492261422262e+00  -6.0047595814604948e-01  4.9347389575704432e-03  9.4412078591010768e-03  5.2621307085395952e-01  9.8663095911038567e-01  1.3449654528791704e+00  1.5700401711675509e+00  1.6447547141926395e+00  1.5640716218677642e+00  1.3332144085867428e+00  9.6983602975167449e-01  5.0659212892692551e-01  -9.6536047972612428e-03  -5.2484131756702113e-01  -9.8542185207280053e-01  -1.3450280212068131e+00  -1.5705482637236945e+00  -1.6447172273913639e+00  -1.5635279432574603e+00  -1.3332149615223505e+00  -9.7108221843243214e-01  -5.0827439374640671e-01  9.4412078591010768e-03  1.3407566239256503e-02  3.9058397006704310e-01  7.2564898528197341e-01  9.8536404503864872e-01  1.1479490124001246e+00  1.2013337254376035e+00  1.1413288633952918e+00  9.7110331689850660e-01  7.0384620379897378e-01  3.6411643918049974e-01  -1.3690852923850470e-02  -3.9001784846689469e-01  -7.2563289649055285e-01  -9.8659246725757876e-01  -1.1492283721145793e+00  -1.2013950854788500e+00  -1.1399716186469753e+00  -9.6976438466896842e-01  -7.0382882059840057e-01  -3.6499921176495426e-01  1.3407566239256503e-02  1.6393414778956436e-02  2.1494519658066752e-01  3.9001597442687286e-01  5.2488428066481863e-01  6.0848017883378169e-01  6.3448125764959173e-01  6.0050729423733451e-01  5.0827665064607530e-01  3.6503887955202702e-01  1.8385003791481996e-01  -1.6573574940385895e-02  -2.1490064855490304e-01  -3.9057887214809905e-01  -5.2621484052150624e-01  -6.0972772581105361e-01  -6.3455741406908273e-01  -5.9918599798512984e-01  -5.0659147246190384e-01  -3.6409928710532075e-01  -1.8383866066974447e-01  1.6393414778956436e-02  1.7606578747101070e-02  1.6573468030954983e-02  1.3709262203379296e-02  9.6103241581323006e-03  4.9902198882911496e-03  1.6886129145274553e-05  -4.9064243411540837e-03  -9.4424256858759228e-03  -1.3425500976814202e-02  -1.6432069326615041e-02  -1.7639398258845793e-02  -1.6427421074939882e-02  -1.3436061303977122e-02  -9.4753962693626490e-03  -4.9138946538473541e-03  -2.3702041393025646e-05  4.9475285659933222e-03  9.6171466340463467e-03  1.3679412328891210e-02  1.6540003713623845e-02  1.7606578747101070e-02  1.6701859435172221e-02  1.3946923483815488e-02  9.7915484209259197e-03  4.8360366426132154e-03  -2.1786533184897877e-04  -5.1402775438851881e-03  -9.5972319124689315e-03  -1.3291481425994518e-02  -1.6086394103898390e-02  -1.7484967481140489e-02  -1.6637637470561125e-02  -1.3811306229653719e-02  -9.4789682687398402e-03  -4.6882492195973119e-03  3.2415641262607603e-04  5.2808012296481433e-03  9.8296887242993319e-03  1.3580787490381335e-02  1.6282579941138735e-02  1.7450146540765325e-02  1.6701859435172221e-02  1.3726758337239953e-02  -1.7799914402763137e-01  -3.5042119443440101e-01  -4.8662922605809072e-01  -5.7495494699406591e-01  -6.0840249326405837e-01  -5.8406151308542353e-01  -5.0351088246698095e-01  -3.7297833106409534e-01  -2.0424959387242075e-01  -1.3979339503448845e-02  1.7796896308707721e-01  3.5108859195064324e-01  4.8788283236235508e-01  5.7594848064947402e-01  6.0827578569521956e-01  5.8302062110105723e-01  5.0236585002734069e-01  3.7243337395867288e-01  2.0411338968887874e-01  1.3726758337239953e-02  9.5317526271432636e-03  -3.5112743221875869e-01  -6.7389124967004577e-01  -9.2717016496623583e-01  -1.0891020260421800e+00  -1.1470719244994461e+00  -1.0963947696633691e+00  -9.3995069771131956e-01  -6.8973928146132268e-01  -3.6896566928423691e-01  -9.7713190790136191e-03  3.5034740548798343e-01  6.7387809427546630e-01  9.2814893099462137e-01  1.0900749825394964e+00  1.1470925392411553e+00  1.0953839205390279e+00  9.3903868774529609e-01  6.8987442672703525e-01  3.6941836957476032e-01  9.5317526271432636e-03  4.7039003939561962e-03  -4.8788104919684483e-01  -9.2814653040850104e-01  -1.2727035152551514e+00  -1.4917918998941830e+00  -1.5684711064424792e+00  -1.4963084443377119e+00  -1.2794944510504676e+00  -9.3533742073668558e-01  -4.9582236556720333e-01  -4.8931297020387539e-03  4.8663080715354196e-01  9.2716328017166960e-01  1.2727284290966430e+00  1.4921977474276902e+00  1.5684681498442217e+00  1.4958224402381683e+00  1.2794295510867455e+00  9.3636231583432283e-01  4.9699412281195621e-01  4.7039003939561962e-03  -2.7675010776710457e-04  -5.7594236126072107e-01  -1.0901214548889420e+00  -1.4921943913557785e+00  -1.7473299296433755e+00  -1.8351260605383701e+00  -1.7481398404480262e+00  -1.4924458783431642e+00  -1.0889558727587518e+00  -5.7448209679130535e-01  2.5019364853143082e-04  5.7496227728191163e-01  1.0890577038117897e+00  1.4918058803378631e+00  1.7473041203788644e+00  1.8350454811714971e+00  1.7479731672886452e+00  1.4927317429436289e+00  1.0901017177160277e+00  5.7555077431604063e-01  -2.7675010776710457e-04  -5.2319362062275910e-03  -6.0829320726527958e-01  -1.1470493335112757e+00  -1.5684364571219362e+00  -1.8350829743516994e+00  -1.9251108531010006e+00  -1.8317818937058845e+00  -1.5625856074219731e+00  -1.1390687388986647e+00  -5.9868545857886102e-01  5.1601458943981099e-03  6.0839712393361256e-01  1.1470695494117047e+00  1.5684969743978252e+00  1.8351348014912914e+00  1.9251225662683418e+00  1.8316649454124228e+00  1.5624858343198575e+00  1.1390591408089679e+00  5.9865665597791229e-01  -5.2319362062275910e-03  -9.7364523189953350e-03  -5.8304169008887696e-01  -1.0953858093888005e+00  -1.4958477277660502e+00  -1.7480385360845185e+00  -1.8316557030652312e+00  -1.7415265574618208e+00  -1.4848133339474794e+00  -1.0812169648066836e+00  -5.6599893014228531e-01  9.5980334007066872e-03  5.8406465724527334e-01  1.0964238526779599e+00  1.4962728649892127e+00  1.7481783788349230e+00  1.8318284231516673e+00  1.7416061284997557e+00  1.4843143451900251e+00  1.0799628627511935e+00  5.6473379598373263e-01  -9.7364523189953350e-03  -1.3538799369070041e-02  -5.0240622158395154e-01  -9.3899541253644103e-01  -1.2794300478457603e+00  -1.4928033898187947e+00  -1.5624453218622731e+00  -1.4842723840533041e+00  -1.2639629580498870e+00  -9.1852617812476112e-01  -4.7822112024790292e-01  1.3305084355661986e-02  5.0348511578520061e-01  9.3993828484982178e-01  1.2794691069763169e+00  1.4924266439014147e+00  1.5626189354220490e+00  1.4848379780897374e+00  1.2639984065888974e+00  9.1732838203407030e-01  4.7673437564686394e-01  -1.3538799369070041e-02  -1.6286576569992568e-02  -3.7245270048368828e-01  -6.8984527420354314e-01  -9.3641647618533874e-01  -1.0901605583423253e+00  -1.1391267191813557e+00  -1.0799878303143360e+00  -9.1731410665147994e-01  -6.6410222775647654e-01  -3.4242331413099075e-01  1.6103518519851607e-02  3.7297138331069862e-01  6.8978943311849539e-01  9.3532568988980958e-01  1.0889844631337433e+00  1.1390557781733706e+00  1.0812152163975881e+00  9.1854216189126869e-01  6.6412993587620806e-01  3.4165039733368102e-01  -1.6286576569992568e-02  -1.7423413817784828e-02  -2.0410290201638939e-01  -3.6938067172726918e-01  -4.9701546669367741e-01  -5.7554500817819876e-01  -5.9866446289593500e-01  -5.6473582920147758e-01  -4.7671326305101136e-01  -3.4166664571534183e-01  -1.7130466005046757e-01  1.7465161562900632e-02  2.0424121140572213e-01  3.6895526773022130e-01  4.9585058165746732e-01  5.7446515167320678e-01  5.9870374957556660e-01  5.6600585463126551e-01  4.7825596422027361e-01  3.4242543212518312e-01  1.7129273016334529e-01  -1.7423413817784828e-02  -1.6691228859928568e-02  -1.3732485633831506e-02  -9.5093890447245592e-03  -4.7022794178958102e-03  2.9258784761014632e-04  5.2020659681488550e-03  9.6951480915417297e-03  1.3483464903744623e-02  1.6230216843734102e-02  1.7442338104307859e-02  1.6672171797681684e-02  1.3937933346680925e-02  9.7588785253319606e-03  4.8193697963840329e-03  -2.8918026283350625e-04  -5.2409136006698609e-03  -9.6394915392799783e-03  -1.3367359511093208e-02  -1.6126956250817868e-02  -1.7470764641832354e-02  -1.6691228859928568e-02  -1.3977647950326560e-02  1.7796772190079335e-01  3.5107902824076509e-01  4.8788169285870442e-01  5.7595436685672730e-01  6.0836567086479942e-01  5.8310766984395213e-01  5.0247172957325015e-01  3.7248041401407289e-01  2.0407209074439484e-01  1.3762742000995778e-02  -1.7798944057058144e-01  -3.5042766383160434e-01  -4.8664681730024950e-01  -5.7492997860531170e-01  -6.0834152301194067e-01  -5.8401265524511792e-01  -5.0345953759558082e-01  -3.7300403628844209e-01  -2.0428089747800193e-01  -1.3977647950326560e-02  -9.7488673982452888e-03  3.5038313890676859e-01  6.7389013763186700e-01  9.2815111011617690e-01  1.0901275625356157e+00  1.1470743415352131e+00  1.0953667392973414e+00  9.3901655349431290e-01  6.8979991189236944e-01  3.6943570491651379e-01  9.5004619781169104e-03  -3.5112048899803955e-01  -6.7390674839373033e-01  -9.2715299019998809e-01  -1.0890822031448228e+00  -1.1470152449398674e+00  -1.0963717562788007e+00  -9.3989698606953331e-01  -6.8975215193302786e-01  -3.6890375655307683e-01  -9.7488673982452888e-03  -4.8321970015040398e-03  4.8665506046526114e-01  9.2716214610795111e-01  1.2726687370303162e+00  1.4922026805805753e+00  1.5684544216480525e+00  1.4958337407485229e+00  1.2794306512109257e+00  9.3646320796223048e-01  4.9699526252278109e-01  4.7139228050869630e-03  -4.8791821136445618e-01  -9.2815036226533176e-01  -1.2727231795272682e+00  -1.4917943175500712e+00  -1.5684994015228386e+00  -1.4963710082854469e+00  -1.2794969372011478e+00  -9.3535911400816885e-01  -4.9589856006331806e-01  -4.8321970015040398e-03  2.7142970587389699e-04  5.7498011813647243e-01  1.0890846732599422e+00  1.4917647426615841e+00  1.7473120300270133e+00  1.8350775618393214e+00  1.7479800507269025e+00  1.4927895282047718e+00  1.0901293998642101e+00  5.7553060911341536e-01  -2.8010710806769540e-04  -5.7594822089405062e-01  -1.0901020007084243e+00  -1.4922058043188702e+00  -1.7472995093241217e+00  -1.8351218079861975e+00  -1.7481374958257889e+00  -1.4924523167389778e+00  -1.0889479569327998e+00  -5.7453513164821524e-01  2.7142970587389699e-04  5.1796624056337287e-03  6.0840630619617253e-01  1.1470072480110931e+00  1.5684767909226547e+00  1.8351429191514288e+00  1.9251019470945399e+00  1.8317044287097046e+00  1.5624196155959629e+00  1.1391371007172642e+00  5.9862196165995030e-01  -5.2333226053588033e-03  -6.0831579610731112e-01  -1.1470224954236661e+00  -1.5685476014641906e+00  -1.8350613673664040e+00  -1.9250788270208796e+00  -1.8318051224752758e+00  -1.5625267445764526e+00  -1.1391060321194904e+00  -5.9863527119392146e-01  5.1796624056337287e-03  9.6677767690323806e-03  5.8409023026348061e-01  1.0963765309753106e+00  1.4963359850666160e+00  1.7481871356159606e+00  1.8318823846308181e+00  1.7415776965922867e+00  1.4843048340286307e+00  1.0800205668626683e+00  5.6470958327127363e-01  -9.7769376996349935e-03  -5.8300749855776168e-01  -1.0953709527645530e+00  -1.4959077499673221e+00  -1.7480318999087650e+00  -1.8316479257418072e+00  -1.7415465186988301e+00  -1.4848690265559432e+00  -1.0811537102810516e+00  -5.6602233588242090e-01  9.6677767690323806e-03  1.3313569772635082e-02  5.0350304260516199e-01  9.3994819660783713e-01  1.2794399299065398e+00  1.4924555679166243e+00  1.5626200335654521e+00  1.4848862783420071e+00  1.2640248069746844e+00  9.1734323135962037e-01  4.7675501259408659e-01  -1.3571621046920996e-02  -5.0238478852798762e-01  -9.3896201130353985e-01  -1.2795096736347478e+00  -1.4928137081185107e+0