<?xml version="1.0"?>
<VTKFile type="UnstructuredGrid"  version="0.1"  >
<UnstructuredGrid>
<Piece  NumberOfPoints="2197" NumberOfCells="10368">
<Points>
<DataArray  type="Float64"  NumberOfComponents="3"  format="ascii">-3.141592653589793 -3.141592653589793 -3.141592653589793  -2.617993877991494 -3.141592653589793 -3.141592653589793  -2.094395102393196 -3.141592653589793 -3.141592653589793  -1.570796326794897 -3.141592653589793 -3.141592653589793  -1.047197551196598 -3.141592653589793 -3.141592653589793  -0.5235987755982987 -3.141592653589793 -3.141592653589793  0 -3.141592653589793 -3.141592653589793  0.5235987755982987 -3.141592653589793 -3.141592653589793  1.047197551196597 -3.141592653589793 -3.141592653589793  1.570796326794897 -3.141592653589793 -3.141592653589793  2.094395102393196 -3.141592653589793 -3.141592653589793  2.617993877991494 -3.141592653589793 -3.141592653589793  3.141592653589793 -3.141592653589793 -3.141592653589793  -3.141592653589793 -2.617993877991494 -3.141592653589793  -2.617993877991494 -2.617993877991494 -3.141592653589793  -2.094395102393196 -2.617993877991494 -3.141592653589793  -1.570796326794897 -2.617993877991494 -3.141592653589793  -1.047197551196598 -2.617993877991494 -3.141592653589793  -0.5235987755982987 -2.617993877991494 -3.141592653589793  0 -2.617993877991494 -3.141592653589793  0.5235987755982987 -2.617993877991494 -3.141592653589793  1.047197551196597 -2.617993877991494 -3.141592653589793  1.570796326794897 -2.617993877991494 -3.141592653589793  2.094395102393196 -2.617993877991494 -3.141592653589793  2.617993877991494 -2.617993877991494 -3.141592653589793  3.141592653589793 -2.617993877991494 -3.141592653589793  -3.141592653589793 -2.094395102393196 -3.141592653589793  -2.617993877991494 -2.094395102393196 -3.141592653589793  -2.094395102393196 -2.094395102393196 -3.141592653589793  -1.570796326794897 -2.094395102393196 -3.141592653589793  -1.047197551196598 -2.094395102393196 -3.141592653589793  -0.5235987755982987 -2.094395102393196 -3.141592653589793  0 -2.094395102393196 -3.141592653589793  0.5235987755982987 -2.094395102393196 -3.141592653589793  1.047197551196597 -2.094395102393196 -3.141592653589793  1.570796326794897 -2.094395102393196 -3.141592653589793  2.094395102393196 -2.094395102393196 -3.141592653589793  2.617993877991494 -2.094395102393196 -3.141592653589793  3.141592653589793 -2.094395102393196 -3.141592653589793  -3.141592653589793 -1.570796326794897 -3.141592653589793  -2.617993877991494 -1.570796326794897 -3.141592653589793  -2.094395102393196 -1.570796326794897 -3.141592653589793  -1.570796326794897 -1.570796326794897 -3.141592653589793  -1.047197551196598 -1.570796326794897 -3.141592653589793  -0.5235987755982987 -1.570796326794897 -3.141592653589793  0 -1.570796326794897 -3.141592653589793  0.5235987755982987 -1.570796326794897 -3.141592653589793  1.047197551196597 -1.570796326794897 -3.141592653589793  1.570796326794897 -1.570796326794897 -3.141592653589793  2.094395102393196 -1.570796326794897 -3.141592653589793  2.617993877991494 -1.570796326794897 -3.141592653589793  3.141592653589793 -1.570796326794897 -3.141592653589793  -3.141592653589793 -1.047197551196598 -3.141592653589793  -2.617993877991494 -1.047197551196598 -3.141592653589793  -2.094395102393196 -1.047197551196598 -3.141592653589793  -1.570796326794897 -1.047197551196598 -3.141592653589793  -1.047197551196598 -1.047197551196598 -3.141592653589793  -0.5235987755982987 -1.047197551196598 -3.141592653589793  0 -1.047197551196598 -3.141592653589793  0.5235987755982987 -1.047197551196598 -3.141592653589793  1.047197551196597 -1.047197551196598 -3.141592653589793  1.570796326794897 -1.047197551196598 -3.141592653589793  2.094395102393196 -1.047197551196598 -3.141592653589793  2.617993877991494 -1.047197551196598 -3.141592653589793  3.141592653589793 -1.047197551196598 -3.141592653589793  -3.141592653589793 -0.5235987755982987 -3.141592653589793  -2.617993877991494 -0.5235987755982987 -3.141592653589793  -2.094395102393196 -0.5235987755982987 -3.141592653589793  -1.570796326794897 -0.5235987755982987 -3.141592653589793  -1.047197551196598 -0.5235987755982987 -3.141592653589793  -0.5235987755982987 -0.5235987755982987 -3.141592653589793  0 -0.5235987755982987 -3.141592653589793  0.5235987755982987 -0.5235987755982987 -3.141592653589793  1.047197551196597 -0.5235987755982987 -3.141592653589793  1.570796326794897 -0.5235987755982987 -3.141592653589793  2.094395102393196 -0.5235987755982987 -3.141592653589793  2.617993877991494 -0.5235987755982987 -3.141592653589793  3.141592653589793 -0.5235987755982987 -3.141592653589793  -3.141592653589793 0 -3.141592653589793  -2.617993877991494 0 -3.141592653589793  -2.094395102393196 0 -3.141592653589793  -1.570796326794897 0 -3.141592653589793  -1.047197551196598 0 -3.141592653589793  -0.5235987755982987 0 -3.141592653589793  0 0 -3.141592653589793  0.5235987755982987 0 -3.141592653589793  1.047197551196597 0 -3.141592653589793  1.570796326794897 0 -3.141592653589793  2.094395102393196 0 -3.141592653589793  2.617993877991494 0 -3.141592653589793  3.141592653589793 0 -3.141592653589793  -3.141592653589793 0.5235987755982987 -3.141592653589793  -2.617993877991494 0.5235987755982987 -3.141592653589793  -2.094395102393196 0.5235987755982987 -3.141592653589793  -1.570796326794897 0.5235987755982987 -3.141592653589793  -1.047197551196598 0.5235987755982987 -3.141592653589793  -0.5235987755982987 0.5235987755982987 -3.141592653589793  0 0.5235987755982987 -3.141592653589793  0.5235987755982987 0.5235987755982987 -3.141592653589793  1.047197551196597 0.5235987755982987 -3.141592653589793  1.570796326794897 0.5235987755982987 -3.141592653589793  2.094395102393196 0.5235987755982987 -3.141592653589793  2.617993877991494 0.5235987755982987 -3.141592653589793  3.141592653589793 0.5235987755982987 -3.141592653589793  -3.141592653589793 1.047197551196597 -3.141592653589793  -2.617993877991494 1.047197551196597 -3.141592653589793  -2.094395102393196 1.047197551196597 -3.141592653589793  -1.570796326794897 1.047197551196597 -3.141592653589793  -1.047197551196598 1.047197551196597 -3.141592653589793  -0.5235987755982987 1.047197551196597 -3.141592653589793  0 1.047197551196597 -3.141592653589793  0.5235987755982987 1.047197551196597 -3.141592653589793  1.047197551196597 1.047197551196597 -3.141592653589793  1.570796326794897 1.047197551196597 -3.141592653589793  2.094395102393196 1.047197551196597 -3.141592653589793  2.617993877991494 1.047197551196597 -3.141592653589793  3.141592653589793 1.047197551196597 -3.141592653589793  -3.141592653589793 1.570796326794897 -3.141592653589793  -2.617993877991494 1.570796326794897 -3.141592653589793  -2.094395102393196 1.570796326794897 -3.141592653589793  -1.570796326794897 1.570796326794897 -3.141592653589793  -1.047197551196598 1.570796326794897 -3.141592653589793  -0.5235987755982987 1.570796326794897 -3.141592653589793  0 1.570796326794897 -3.141592653589793  0.5235987755982987 1.570796326794897 -3.141592653589793  1.047197551196597 1.570796326794897 -3.141592653589793  1.570796326794897 1.570796326794897 -3.141592653589793  2.094395102393196 1.570796326794897 -3.141592653589793  2.617993877991494 1.570796326794897 -3.141592653589793  3.141592653589793 1.570796326794897 -3.141592653589793  -3.141592653589793 2.094395102393196 -3.141592653589793  -2.617993877991494 2.094395102393196 -3.141592653589793  -2.094395102393196 2.094395102393196 -3.141592653589793  -1.570796326794897 2.094395102393196 -3.141592653589793  -1.047197551196598 2.094395102393196 -3.141592653589793  -0.5235987755982987 2.094395102393196 -3.141592653589793  0 2.094395102393196 -3.141592653589793  0.5235987755982987 2.094395102393196 -3.141592653589793  1.047197551196597 2.094395102393196 -3.141592653589793  1.570796326794897 2.094395102393196 -3.141592653589793  2.094395102393196 2.094395102393196 -3.141592653589793  2.617993877991494 2.094395102393196 -3.141592653589793  3.141592653589793 2.094395102393196 -3.141592653589793  -3.141592653589793 2.617993877991494 -3.141592653589793  -2.617993877991494 2.617993877991494 -3.141592653589793  -2.094395102393196 2.617993877991494 -3.141592653589793  -1.570796326794897 2.617993877991494 -3.141592653589793  -1.047197551196598 2.617993877991494 -3.141592653589793  -0.5235987755982987 2.617993877991494 -3.141592653589793  0 2.617993877991494 -3.141592653589793  0.5235987755982987 2.617993877991494 -3.141592653589793  1.047197551196597 2.617993877991494 -3.141592653589793  1.570796326794897 2.617993877991494 -3.141592653589793  2.094395102393196 2.617993877991494 -3.141592653589793  2.617993877991494 2.617993877991494 -3.141592653589793  3.141592653589793 2.617993877991494 -3.141592653589793  -3.141592653589793 3.141592653589793 -3.141592653589793  -2.617993877991494 3.141592653589793 -3.141592653589793  -2.094395102393196 3.141592653589793 -3.141592653589793  -1.570796326794897 3.141592653589793 -3.141592653589793  -1.047197551196598 3.141592653589793 -3.141592653589793  -0.5235987755982987 3.141592653589793 -3.141592653589793  0 3.141592653589793 -3.141592653589793  0.5235987755982987 3.141592653589793 -3.141592653589793  1.047197551196597 3.141592653589793 -3.141592653589793  1.570796326794897 3.141592653589793 -3.141592653589793  2.094395102393196 3.141592653589793 -3.141592653589793  2.617993877991494 3.141592653589793 -3.141592653589793  3.141592653589793 3.141592653589793 -3.141592653589793  -3.141592653589793 -3.141592653589793 -2.617993877991494  -2.617993877991494 -3.141592653589793 -2.617993877991494  -2.094395102393196 -3.141592653589793 -2.617993877991494  -1.570796326794897 -3.141592653589793 -2.617993877991494  -1.047197551196598 -3.141592653589793 -2.617993877991494  -0.5235987755982987 -3.141592653589793 -2.617993877991494  0 -3.141592653589793 -2.617993877991494  0.5235987755982987 -3.141592653589793 -2.617993877991494  1.047197551196597 -3.141592653589793 -2.617993877991494  1.570796326794897 
[...]
<PointData  Scalars="f_181096"> 
<DataArray  type="Float64"  Name="f_181096"  format="ascii">6.8518841620327661e-02  5.8139269735437878e-02  -3.9015409675254378e-04  -7.9167025483465429e-03  3.6912066110915158e-03  -4.1815244948235325e-02  -7.2440552382366630e-02  -3.6431060559299032e-02  -1.3101248152371164e-02  -7.0139803635771323e-03  -1.1902311672242077e-02  5.0950588045543449e-02  6.8518841620327661e-02  4.9136459779080890e-02  -6.2727338463581261e-01  -9.8303906887907733e-01  -1.0707958204242769e+00  -1.0365814929792803e+00  -7.1724989146252061e-01  -5.4135494152579802e-02  6.2177540594532998e-01  1.0558756723151095e+00  1.0674440116495729e+00  9.6733562132482442e-01  7.0531001142711325e-01  4.9136459779080890e-02  4.6222806523964037e-03  -1.0618362131653827e+00  -1.4669937043942067e+00  -1.5822970671745817e+00  -1.6107045733398333e+00  -9.6434623937352537e-01  9.3258601219823462e-03  9.7239302912898340e-01  1.4736829771446545e+00  1.6001303950872281e+00  1.6183789999323017e+00  1.0333392701913391e+00  4.6222806523964037e-03  1.0321785583303920e-03  -1.0556785347521782e+00  -1.6115287957014233e+00  -1.9144749602946052e+00  -1.5992401201573010e+00  -1.0632893231252776e+00  2.6324185154433578e-03  1.0757837956725720e+00  1.5795203122595762e+00  1.9019875157263109e+00  1.5754145215333599e+00  1.0740292148495896e+00  1.0321785583303920e-03  9.4905497139356528e-03  -9.6713832936307831e-01  -1.6181845355949178e+00  -1.5788875508224756e+00  -1.4705982030128193e+00  -1.0613567763979797e+00  4.9946998633466303e-03  1.0408653964555898e+00  1.6206694668444310e+00  1.5904746014992157e+00  1.4683591507850309e+00  9.7061195660531463e-01  9.4905497139356528e-03  -5.1413356109166926e-02  -7.1979748286270751e-01  -1.0308536814351543e+00  -1.0763564116354505e+00  -9.6917347344901017e-01  -6.1999040518968174e-01  4.7129598665080978e-02  7.1435076718094803e-01  9.6588895131773311e-01  1.0612727612786816e+00  1.0537657988087172e+00  6.2236026392167598e-01  -5.1413356109166926e-02  -5.7426411495206241e-02  -4.2787067319893200e-02  -4.4833907102349406e-03  -3.3585809192128587e-04  -3.6385646321000316e-03  5.1584846205378648e-02  6.0818613371056478e-02  5.1765049457910418e-02  -5.5639599550307674e-03  -5.4177193034925580e-03  -5.2253876155188466e-03  -4.9003655672729837e-02  -5.7426411495206241e-02  -5.8729819948879852e-02  6.2303368281702676e-01  1.0544361355936602e+00  1.0677177289537116e+00  9.7099174460416193e-01  7.1432498023662205e-01  4.0168615261222652e-02  -6.2095338235494424e-01  -9.7569002581307418e-01  -1.0720617286550551e+00  -1.0317565519401375e+00  -7.0918438503302472e-01  -5.8729819948879852e-02  6.5048715662401006e-03  9.7846340271613774e-01  1.4716032509011074e+00  1.5979010083045930e+00  1.6189255732304770e+00  1.0322807837387691e+00  5.2189773252671679e-03  -1.0620091048828213e+00  -1.4694979158053669e+00  -1.5837562834397472e+00  -1.6130018454332873e+00  -9.6264892855860529e-01  6.5048715662401006e-03  -1.7375009224855345e-03  1.0806863996921376e+00  1.5852466155777096e+00  1.9127017166933502e+00  1.5816634476802243e+00  1.0691585998416018e+00  -3.0687253287689780e-04  -1.0650179487141473e+00  -1.6012320836556757e+00  -1.9090832316596391e+00  -1.5976062502739388e+00  -1.0672999219746315e+00  -1.7375009224855345e-03  7.5237378993402177e-03  1.0352386248545873e+00  1.6196611381080925e+00  1.5921562584435953e+00  1.4724424816714128e+00  9.6860167052352297e-01  4.9364807029083609e-03  -9.7096416117384499e-01  -1.5992261123149156e+00  -1.5824522653976647e+00  -1.4676731935268246e+00  -1.0511557678588230e+00  7.5237378993402177e-03  3.6787732251556772e-02  7.1736225707532530e-01  9.6626620027824195e-01  1.0638194586312475e+00  1.0586900701309891e+00  6.3282772153691480e-01  -6.1557691004636796e-02  -7.0955874642583161e-01  -1.0325822649246088e+00  -1.0740487178950329e+00  -9.7325091191566993e-01  -6.2004099770466392e-01  3.6787732251556772e-02  6.8518841620327661e-02  5.8139269735437878e-02  -3.9015409675254378e-04  -7.9167025483465429e-03  3.6912066110915158e-03  -4.1815244948235325e-02  -7.2440552382366630e-02  -3.6431060559299032e-02  -1.3101248152371164e-02  -7.0139803635771323e-03  -1.1902311672242077e-02  5.0950588045543449e-02  6.8518841620327661e-02  5.8857959131465652e-02  2.0019250107428461e-02  -2.5117267570446040e-02  -1.5735653680668569e-02  -3.6077057084458852e-02  -6.2693619815737248e-02  -4.3169430198651847e-02  -1.7692020467546352e-02  2.1124144610688855e-02  1.1928761632145261e-02  4.1386538016742642e-02  7.2811534329899175e-02  5.8857959131465652e-02  6.4770055074576099e-03  -5.5701669457769865e-01  -8.4212710393796419e-01  -9.5201358283609583e-01  -9.3686526924135283e-01  -5.7592893903616638e-01  -3.0849242675059969e-02  5.5580734342982596e-01  8.6427419223393431e-01  9.4535947441004775e-01  8.8001384223590884e-01  5.8762265714375639e-01  6.4770055074576099e-03  -2.1965631059734352e-02  -8.6679045323237580e-01  -1.2972107086425138e+00  -1.5020374662425158e+00  -1.4050262663568609e+00  -7.9835932763634065e-01  2.7583822239178012e-02  8.3936590912504228e-01  1.2918739022198986e+00  1.4920599381383262e+00  1.4043883241939372e+00  8.5662296243215363e-01  -2.1965631059734352e-02  -1.3491110652185367e-02  -9.4583452583289895e-01  -1.4915746044911387e+00  -1.6941296049861174e+00  -1.4614730663780444e+00  -9.2180426938606663e-01  2.2230758182236136e-02  9.4361313796291013e-01  1.5030034630957216e+00  1.6946171153204967e+00  1.4223829493262601e+00  9.3611087527764358e-01  -1.3491110652185367e-02  -4.0304806748938528e-02  -8.9096996298465281e-01  -1.4038410797055347e+00  -1.4193658043178132e+00  -1.3417137426353258e+00  -9.0880600165216863e-01  4.1889434515985147e-02  9.3160534915894555e-01  1.3965232450995189e+00  1.4486935090047033e+00  1.3312942697728478e+00  8.3453296766318386e-01  -4.0304806748938528e-02  -6.9978554059447903e-02  -5.9141696342488737e-01  -8.5180872330446722e-01  -9.3384106574980796e-01  -8.3250696245183464e-01  -4.7149488215849500e-01  6.2791707815757408e-02  5.7950812457164236e-01  8.0333070884751800e-01  9.2631757804662707e-01  9.1147354635145217e-01  4.7218815879602244e-01  -6.9978554059447903e-02  -5.4878998821861216e-02  -9.4970152072868675e-03  1.7140969303183384e-02  1.4126825961145575e-02  4.0922713113445607e-02  6.8910541002169617e-02  4.8170960318267085e-02  2.5684211152629585e-02  -2.4265656703604442e-02  -2.0928849913886511e-02  -4.0958391056244006e-02  -6.0622207273195498e-02  -5.4878998821861216e-02  -2.3530786062237581e-02  5.4866291277057411e-01  8.6274236950229166e-01  9.4677643390806199e-01  8.9058340302792027e-01  5.9293258562694728e-01  1.5157144299409019e-02  -5.5796899587468762e-01  -8.3624821226698265e-01  -9.4382305185213211e-01  -9.3307974095292967e-01  -5.8203383363261274e-01  -2.3530786062237581e-02  2.7981625332896234e-02  8.4345156517815456e-01  1.2908925133436568e+00  1.4958547031803582e+00  1.4041951958012615e+00  8.5448483691899968e-01  -2.6893415534666437e-02  -8.6146286750320100e-01  -1.2942464543191294e+00  -1.5033387269376648e+00  -1.3900936832863968e+00  -7.9899998032760877e-01  2.7981625332896234e-02  1.6908876132189759e-02  9.5165016338368968e-01  1.5014712725403774e+00  1.7013103585919205e+00  1.4140185610837055e+00  9.3866571312091163e-01  -1.9686090431813602e-02  -9.4628580407600771e-01  -1.4884630250969453e+00  -1.6961987685189417e+00  -1.4602184530241997e+00  -9.2132156597576853e-01  1.6908876132189759e-02  4.7020923222342685e-02  9.3197957343533244e-01  1.4007984684695800e+00  1.4527127273071574e+00  1.3398097117945904e+00  8.3604563218791805e-01  -4.5749011678406191e-02  -8.8513792765473465e-01  -1.4018949028712184e+00  -1.4274198916849479e+00  -1.3398981620574979e+00  -9.1713875175654724e-01  4.7020923222342685e-02  6.7889166607780688e-02  5.9104111439108209e-01  7.9356841735522632e-01  9.2340665332816374e-01  9.1174458107291878e-01  4.7522252687141286e-01  -6.1567649532422927e-02  -5.9764401597109151e-01  -8.4244431581065560e-01  -9.2626177439073809e-01  -8.3548984681222271e-01  -4.7689676209202814e-01  6.7889166607780688e-02  5.8857959131465652e-02  2.0019250107428461e-02  -2.5117267570446040e-02  -1.5735653680668569e-02  -3.6077057084458852e-02  -6.2693619815737248e-02  -4.3169430198651847e-02  -1.7692020467546352e-02  2.1124144610688855e-02  1.1928761632145261e-02  4.1386538016742642e-02  7.2811534329899175e-02  5.8857959131465652e-02  1.7655008798403943e-02  1.0295326049513689e-02  -1.8340893580547513e-02  -3.4931501167311640e-02  -4.2938204840671408e-02  -5.5783416124298088e-02  -2.2911526465119500e-02  4.2504667627928164e-03  2.8375474820829479e-02  3.0314690064862676e-02  4.4586528911313178e-02  2.5732345211053224e-02  1.7655008798403943e-02  9.8385513284294113e-03  -3.1585541317861798e-01  -5.1372543378147972e-01  -6.0180032972193931e-01  -5.3325902585745177e-01  -3.1352353673039413e-01  -2.9297912252227989e-03  3.0610274492967043e-01  5.1570809086372293e-01  6.1051671231815330e-01  5.3831045446059012e-01  3.1199467721424312e-01  9.8385513284294113e-03  -2.0331200450319494e-02  -5.2030268510630140e-01  -8.3453596377403927e-01  -9.6491660792361389e-01  -8.2485411451765578e-01  -4.4642502070523687e-01  1.2601788128440377e-02  5.2003539921060138e-01  8.3378045019870672e-01  9.6015610579596333e-01  8.2119145560497397e-01  4.6165269165489242e-01  -2.0331200450319494e-02  -3.6430741422346397e-02  -6.0395147419966044e-01  -9.6283218320825981e-01  -1.0500550937038853e+00  -8.9800847205533785e-01  -5.2725582063229459e-01  3.4714822133598236e-02  6.0156281177901749e-01  9.6581295353160079e-01  1.0454856429425337e+00  9.0457025851525896e-01  5.2804150605488387e-01  -3.6430741422346397e-02  -5.1851282818812981e-02  -5.3625964232347878e-01  -8.2033883836506760e-01  -9.0393883164946331e-01  -7.8743189457629137e-01  -4.5028415919897630e-01  4.9401527738905930e-02  5.4050097905937267e-01  8.2781417330051255e-01  8.9491557999723081e-01  7.8020220494360826e-01  4.4586790828744671e-01  -5.1851282818812981e-02  -3.4395788197213617e-02  -3.1252633154764381e-01  -4.6924628229562643e-01  -5.2211732873100059e-01  -4.3835858716580417e-01  -2.0477699233399457e-01  5.4813848214286580e-02  3.0521832235909679e-01  4.4606311700580170e-01  5.2454724466299485e-01  4.5202029916450859e-01  2.1073066314430211e-01  -3.4395788197213617e-02  -2.7801198356931133e-02  3.8160809031104979e-04  2.4392219038105192e-02  3.5678125227512465e-02  4.9917160810908273e-02  3.7260125461596662e-02  2.5798890300634418e-02  5.7117575001543550e-03  -2.2681360325958379e-02  -3.5689259681928251e-02  -4.3535221121469417e-02  -5.5974584714853941e-02  -2.7801198356931133e-02  -5.8848390195598175e-03  3.0371499769524002e-01  5.1159415807858033e-01  6.1310980439518936e-01  5.4032956693240575e-01  3.1677815795322889e-01  6.3023012478050427e-03  -3.0977023783406527e-01  -5.1558770696041256e-01  -5.9202139273395449e-01  -5.3762088031291655e-01  -3.0689352125872499e-01  -5.8848390195598175e-03  2.0852896074473645e-02  5.0479481947209393e-01  8.3638506687675185e-01  9.5888018134140907e-01  8.1659936801601474e-01  4.6022911465955046e-01  -2.6420652527470601e-02  -5.2138338963427477e-01  -8.3300794156602398e-01  -9.5959291106842870e-01  -8.2150688730350796e-01  -4.4366192134429555e-01  2.0852896074473645e-02  3.7290140113361833e-02  6.0041362011968646e-01  9.6270316683624846e-01  1.0542087858301374e+00  9.0033445706646098e-01  5.2422423158633058e-01  -4.4238227573724212e-02  -6.0963209422160569e-01  -9.5823793431501503e-01  -1.0501022962128246e+00  -8.9472038844225787e-01  -5.3112255433966526e-01  3.7290140113361833e-02  4.3004346656446493e-02  5.4034138516890029e-01  8.2508516610358373e-01  8.9776402192947868e-01  7.9318254465134730e-01  4.3854395525720563e-01  -5.2050933236367447e-02  -5.3347943567708345e-01  -8.2075215697931148e-01  -9.0152417927807282e-01  -7.8844874827457889e-01  -4.5311161979988385e-01  4.3004346656446493e-02  6.0957184547962645e-02  2.9819455977737447e-01  4.4683926276657004e-01  5.2757066502198247e-01  4.5325261791239635e-01  2.1117299788802929e-01  -3.0340915519203510e-02  -3.1001281456276675e-01  -4.6552687661624076e-01  -5.2434622445587209e-01  -4.3905296570435404e-01  -2.1602094712230294e-01  6.0957184547962645e-02  1.7655008798403943e-02  1.0295326049513689e-02  -1.8340893580547513e-02  -3.4931501167311640e-02  -4.2938204840671408e-02  -5.5783416124298088e-02  -2.2911526465119500e-02  4.2504667627928164e-03  2.8375474820829479e-02  3.0314690064862676e-02  4.4586528911313178e-02  2.5732345211053224e-02  1.7655008798403943e-02  5.5776705501085783e-03  -1.7330124735757853e-02  -3.1499649217407402e-02  -3.6373086088716422e-02  -3.3222729661910380e-02  -1.9134781301736493e-02  -7.0184356572486765e-05  9.6937665335206837e-03  3.1083523342243166e-02  4.7994864210910149e-02  2.9982944912990625e-02  2.1273791977361324e-02  5.5776705501085783e-03  -1.6825281610264749e-02  -4.6805623257735997e-02  -5.8122360128089454e-02  -5.0332926725608899e-02  -3.0498894181776582e-02  -2.5346399350758791e-03  2.1914239122720044e-02  4.9649017924699501e-02  6.5691522403353270e-02  3.9548392290707668e-02  1.4921855558672847e-02  7.9137024165994718e-03  -1.6825281610264749e-02  -3.7329787946013111e-02  -6.1355979333156820e-02  -6.0677466501431479e-02  -4.1217798709874368e-02  -6.0498460390750216e-04  2.1356663394249669e-02  3.7085100629228637e-02  4.0426133506809458e-02  6.3469670961800700e-02  4.2902691747260156e-02  -1.0204370601195069e-03  -9.9866850503402584e-03  -3.7329787946013111e-02  -4.3700178538118375e-02  -4.5771713971471159e-02  -3.8861539482150161e-02  -5.1550490998768048e-03  4.0073748440009604e-02  4.8390238067877747e-02  2.8289830263633579e-02  4.2535319343900618e-02  4.1587600460004176e-02  2.3083222062961501e-03  -3.6116439610224087e-02  -4.0156213863832842e-02  -4.3700178538118375e-02  -3.2676234584458029e-02  -9.4682083719915197e-03  -3.6236706795250082e-03  3.7446906222687135e-02  7.3678741693162852e-02  5.0762554204880857e-02  3.6806464286892424e-02  2.9791367093264694e-02  -2.1889549831988165e-03  -3.4481122748022376e-02  -6.3857077468080337e-02  -6.1395966860332503e-02  -3.2676234584458029e-02  -2.3805767645745868e-02  -2.6933233131142798e-03  1.4834160542515013e-02  4.4434483069671085e-02  6.3654219871282697e-02  4.5597115811878905e-02  2.3413787936229852e-02  4.8847127303444128e-03  -2.8352769713516811e-02  -4.4739722371947184e-02  -5.7649338501298664e-02  -4.5739697729773911e-02  -2.3805767645745868e-02  1.5219576166191514e-03  2.2475168540228196e-02  3.5146904213802968e-02  4.1809759340731258e-02  3.7264670766021128e-02  1.6615182470941230e-02  4.3261946852101293e-03  -1.4870040674260721e-02  -3.3965685796768411e-02  -2.9815406043770271e-02  -2.9392602746460252e-02  -3.0550380258242409e-02  1.5219576166191514e-03  1.7859137006881146e-02  4.3291792599843115e-02  5.9825296426307434e-02  4.7438040081199249e-02  1.5886108151965350e-02  2.4796291824923039e-03  -1.2724469042302474e-02  -4.4750861655583889e-02  -5.1605795129679034e-02  -3.5576388221503094e-02  -3.1674088232672828e-02  3.1226982868907922e-04  1.7859137006881146e-02  2.7001138565745642e-02  5.1442219105397202e-02  6.3083019005078914e-02  3.4235748248590547e-02  -7.1403624534866744e-03  -1.5827105793322693e-02  -4.0378828589169864e-02  -6.4913887109606258e-02  -5.8656620395785057e-02  -4.0809554093202881e-02  3.2087474743921797e-03  2.8038674811129802e-02  2.7001138565745642e-02  2.4636264040656431e-02  4.4692698538550471e-02  3.9674076912216881e-02  -2.0857519310977365e-03  -3.9040625478541563e-02  -5.2080429736054298e-02  -4.1077644657763451e-02  -4.3744919696146640e-02  -3.4512036476602545e-02  -4.2779324685527764e-04  4.8236064128527337e-02  4.3389705383228144e-02  2.4636264040656431e-02  3.7093291910818060e-02  3.4351721298148029e-02  3.7052495531582530e-03  -3.6731685457052660e-02  -6.2015555573357903e-02  -6.3223714123599770e-02  -4.6329702010516484e-02  -9.8441790379060652e-03  -2.0038935842383960e-03  3.5735082907510284e-02  5.8449614913324330e-02  4.9027656109892959e-02  3.7093291910818060e-02  2.2735443811276589e-02  -2.9451441546711125e-03  -2.5834791919825253e-02  -3.9714857871099546e-02  -5.1844717706969315e-02  -4.7390072449763863e-02  -1.5636764743916128e-02  -1.3795935672071620e-04  2.0549807561382319e-02  3.2773059352243707e-02  6.4566514706151809e-02  4.2802268172326061e-02  2.2735443811276589e-02  5.5776705501085783e-03  -1.7330124735757853e-02  -3.1499649217407402e-02  -3.6373086088716422e-02  -3.3222729661910380e-02  -1.9134781301736493e-02  -7.0184356572486765e-05  9.6937665335206837e-03  3.1083523342243166e-02  4.7994864210910149e-02  2.9982944912990625e-02  2.1273791977361324e-02  5.5776705501085783e-03  -2.4164004645240062e-02  -5.1645819048249116e-02  -5.0299579607514959e-02  -3.5645221558704872e-02  -2.8458089297307011e-02  7.1181051519889757e-03  1.7627753839941827e-02  4.3084284914796322e-02  5.4949640191277363e-02  3.8469885220392366e-02  2.2196865388505328e-02  6.3770390299051939e-03  -2.4164004645240062e-02  -3.4617386544163221e-02  2.1025196773466753e-01  4.5655298340846623e-01  5.2636110946054449e-01  4.4925303260788568e-01  3.0016734228356767e-01  5.8165693364288305e-02  -2.1602123801453685e-01  -4.4834866168870174e-01  -5.3539959713085838e-01  -4.6515792746758788e-01  -3.1141277928641520e-01  -3.4617386544163221e-02  -4.7178945619129761e-02  4.3584827376280799e-01  7.9309276777405135e-01  8.9885162066899105e-01  8.2431182344127396e-01  5.4062652758607688e-01  4.3268873801476634e-02  -4.5805777758994931e-01  -7.8771258357136542e-01  -9.0140626339451868e-01  -8.1598923666740431e-01  -5.3387378256001861e-01  -4.7178945619129761e-02  -3.7386213529192372e-02  5.2760005550695255e-01  8.9774617103170073e-01  1.0566048230743132e+00  9.6281174341402131e-01  5.9697494200598955e-01  2.3804164810011689e-02  -5.2995855709763218e-01  -8.9232888560540569e-01  -1.0484450748307006e+00  -9.5945632740503262e-01  -6.0119104418859293e-01  -3.7386213529192372e-02  -1.4866751588726260e-02  4.6224718989957436e-01  8.2344767276468944e-01  9.6740411080450761e-01  8.2798241624156232e-01  5.0527117438350344e-01  1.9563195021014133e-02  -4.4776518752071964e-01  -8.2960556383747786e-01  -9.6477649915646080e-01  -8.3266679790154396e-01  -5.1634039973023571e-01  -1.4866751588726260e-02  1.4036212403593631e-03  3.1220348576668383e-01  5.3483747249472890e-01  6.0101514181749971e-01  5.1451826159394209e-01  3.0403070451507991e-01  2.4407393485024976e-03  -3.0463582095572689e-01  -5.4728088415630372e-01  -6.0158900520546821e-01  -5.0807457743956963e-01  -3.1568441467685210e-01  1.4036212403593631e-03  2.2988120706915086e-02  4.2339834240226755e-02  4.5492358641051500e-02  3.4497971655528932e-02  2.9590905075546407e-02  4.2816695740863296e-04  -1.6670006566162330e-02  -5.2422278420009086e-02  -3.0819738398414887e-02  -2.0323477038989228e-02  -1.2341892003649981e-02  3.7223119999019665e-04  2.2988120706915086e-02  5.6558073930786601e-02  -2.1371166938293437e-01  -4.4540542831393209e-01  -5.2713475440344548e-01  -4.6739380267381037e-01  -3.1342850593174293e-01  -3.9860490485832387e-02  2.2237686401718823e-01  4.5917512611281347e-01  5.3220006008538390e-01  4.4585540137617163e-01  2.9188027868329608e-01  5.6558073930786601e-02  4.1038459329601221e-02  -4.5184293032442313e-01  -7.8706742516671335e-01  -9.0089906490835503e-01  -8.2398334846126409e-01  -5.3603790163093390e-01  -5.2566071637262339e-02  4.5204813421796830e-01  7.9121954260051586e-01  9.0542583260664089e-01  8.2141622278968152e-01  5.4188523913422926e-01  4.1038459329601221e-02  2.5791079433026221e-02  -5.2452045944106507e-01  -9.0592813709909081e-01  -1.0477964936755817e+00  -9.6611073993257113e-01  -6.1146483426114850e-01  -3.5475585301376795e-02  5.3029807878457380e-01  9.0031418273954134e-01  1.0589059932942910e+00  9.7379688571452994e-01  6.0242212564245035e-01  2.5791079433026221e-02  1.1195460857250483e-02  -4.5065519329417436e-01  -8.1997128740005065e-01  -9.5819802229856710e-01  -8.3441992334260595e-01  -5.2242549438810626e-01  -2.47430419367313