<?xml version="1.0"?>
<VTKFile type="UnstructuredGrid"  version="0.1"  >
<UnstructuredGrid>
<Piece  NumberOfPoints="2197" NumberOfCells="10368">
<Points>
<DataArray  type="Float64"  NumberOfComponents="3"  format="ascii">-3.141592653589793 -3.141592653589793 -3.141592653589793  -2.617993877991494 -3.141592653589793 -3.141592653589793  -2.094395102393196 -3.141592653589793 -3.141592653589793  -1.570796326794897 -3.141592653589793 -3.141592653589793  -1.047197551196598 -3.141592653589793 -3.141592653589793  -0.5235987755982987 -3.141592653589793 -3.141592653589793  0 -3.141592653589793 -3.141592653589793  0.5235987755982987 -3.141592653589793 -3.141592653589793  1.047197551196597 -3.141592653589793 -3.141592653589793  1.570796326794897 -3.141592653589793 -3.141592653589793  2.094395102393196 -3.141592653589793 -3.141592653589793  2.617993877991494 -3.141592653589793 -3.141592653589793  3.141592653589793 -3.141592653589793 -3.141592653589793  -3.141592653589793 -2.617993877991494 -3.141592653589793  -2.617993877991494 -2.617993877991494 -3.141592653589793  -2.094395102393196 -2.617993877991494 -3.141592653589793  -1.570796326794897 -2.617993877991494 -3.141592653589793  -1.047197551196598 -2.617993877991494 -3.141592653589793  -0.5235987755982987 -2.617993877991494 -3.141592653589793  0 -2.617993877991494 -3.141592653589793  0.5235987755982987 -2.617993877991494 -3.141592653589793  1.047197551196597 -2.617993877991494 -3.141592653589793  1.570796326794897 -2.617993877991494 -3.141592653589793  2.094395102393196 -2.617993877991494 -3.141592653589793  2.617993877991494 -2.617993877991494 -3.141592653589793  3.141592653589793 -2.617993877991494 -3.141592653589793  -3.141592653589793 -2.094395102393196 -3.141592653589793  -2.617993877991494 -2.094395102393196 -3.141592653589793  -2.094395102393196 -2.094395102393196 -3.141592653589793  -1.570796326794897 -2.094395102393196 -3.141592653589793  -1.047197551196598 -2.094395102393196 -3.141592653589793  -0.5235987755982987 -2.094395102393196 -3.141592653589793  0 -2.094395102393196 -3.141592653589793  0.5235987755982987 -2.094395102393196 -3.141592653589793  1.047197551196597 -2.094395102393196 -3.141592653589793  1.570796326794897 -2.094395102393196 -3.141592653589793  2.094395102393196 -2.094395102393196 -3.141592653589793  2.617993877991494 -2.094395102393196 -3.141592653589793  3.141592653589793 -2.094395102393196 -3.141592653589793  -3.141592653589793 -1.570796326794897 -3.141592653589793  -2.617993877991494 -1.570796326794897 -3.141592653589793  -2.094395102393196 -1.570796326794897 -3.141592653589793  -1.570796326794897 -1.570796326794897 -3.141592653589793  -1.047197551196598 -1.570796326794897 -3.141592653589793  -0.5235987755982987 -1.570796326794897 -3.141592653589793  0 -1.570796326794897 -3.141592653589793  0.5235987755982987 -1.570796326794897 -3.141592653589793  1.047197551196597 -1.570796326794897 -3.141592653589793  1.570796326794897 -1.570796326794897 -3.141592653589793  2.094395102393196 -1.570796326794897 -3.141592653589793  2.617993877991494 -1.570796326794897 -3.141592653589793  3.141592653589793 -1.570796326794897 -3.141592653589793  -3.141592653589793 -1.047197551196598 -3.141592653589793  -2.617993877991494 -1.047197551196598 -3.141592653589793  -2.094395102393196 -1.047197551196598 -3.141592653589793  -1.570796326794897 -1.047197551196598 -3.141592653589793  -1.047197551196598 -1.047197551196598 -3.141592653589793  -0.5235987755982987 -1.047197551196598 -3.141592653589793  0 -1.047197551196598 -3.141592653589793  0.5235987755982987 -1.047197551196598 -3.141592653589793  1.047197551196597 -1.047197551196598 -3.141592653589793  1.570796326794897 -1.047197551196598 -3.141592653589793  2.094395102393196 -1.047197551196598 -3.141592653589793  2.617993877991494 -1.047197551196598 -3.141592653589793  3.141592653589793 -1.047197551196598 -3.141592653589793  -3.141592653589793 -0.5235987755982987 -3.141592653589793  -2.617993877991494 -0.5235987755982987 -3.141592653589793  -2.094395102393196 -0.5235987755982987 -3.141592653589793  -1.570796326794897 -0.5235987755982987 -3.141592653589793  -1.047197551196598 -0.5235987755982987 -3.141592653589793  -0.5235987755982987 -0.5235987755982987 -3.141592653589793  0 -0.5235987755982987 -3.141592653589793  0.5235987755982987 -0.5235987755982987 -3.141592653589793  1.047197551196597 -0.5235987755982987 -3.141592653589793  1.570796326794897 -0.5235987755982987 -3.141592653589793  2.094395102393196 -0.5235987755982987 -3.141592653589793  2.617993877991494 -0.5235987755982987 -3.141592653589793  3.141592653589793 -0.5235987755982987 -3.141592653589793  -3.141592653589793 0 -3.141592653589793  -2.617993877991494 0 -3.141592653589793  -2.094395102393196 0 -3.141592653589793  -1.570796326794897 0 -3.141592653589793  -1.047197551196598 0 -3.141592653589793  -0.5235987755982987 0 -3.141592653589793  0 0 -3.141592653589793  0.5235987755982987 0 -3.141592653589793  1.047197551196597 0 -3.141592653589793  1.570796326794897 0 -3.141592653589793  2.094395102393196 0 -3.141592653589793  2.617993877991494 0 -3.141592653589793  3.141592653589793 0 -3.141592653589793  -3.141592653589793 0.5235987755982987 -3.141592653589793  -2.617993877991494 0.5235987755982987 -3.141592653589793  -2.094395102393196 0.5235987755982987 -3.141592653589793  -1.570796326794897 0.5235987755982987 -3.141592653589793  -1.047197551196598 0.5235987755982987 -3.141592653589793  -0.5235987755982987 0.5235987755982987 -3.141592653589793  0 0.5235987755982987 -3.141592653589793  0.5235987755982987 0.5235987755982987 -3.141592653589793  1.047197551196597 0.5235987755982987 -3.141592653589793  1.570796326794897 0.5235987755982987 -3.141592653589793  2.094395102393196 0.5235987755982987 -3.141592653589793  2.617993877991494 0.5235987755982987 -3.141592653589793  3.141592653589793 0.5235987755982987 -3.141592653589793  -3.141592653589793 1.047197551196597 -3.141592653589793  -2.617993877991494 1.047197551196597 -3.141592653589793  -2.094395102393196 1.047197551196597 -3.141592653589793  -1.570796326794897 1.047197551196597 -3.141592653589793  -1.047197551196598 1.047197551196597 -3.141592653589793  -0.5235987755982987 1.047197551196597 -3.141592653589793  0 1.047197551196597 -3.141592653589793  0.5235987755982987 1.047197551196597 -3.141592653589793  1.047197551196597 1.047197551196597 -3.141592653589793  1.570796326794897 1.047197551196597 -3.141592653589793  2.094395102393196 1.047197551196597 -3.141592653589793  2.617993877991494 1.047197551196597 -3.141592653589793  3.141592653589793 1.047197551196597 -3.141592653589793  -3.141592653589793 1.570796326794897 -3.141592653589793  -2.617993877991494 1.570796326794897 -3.141592653589793  -2.094395102393196 1.570796326794897 -3.141592653589793  -1.570796326794897 1.570796326794897 -3.141592653589793  -1.047197551196598 1.570796326794897 -3.141592653589793  -0.5235987755982987 1.570796326794897 -3.141592653589793  0 1.570796326794897 -3.141592653589793  0.5235987755982987 1.570796326794897 -3.141592653589793  1.047197551196597 1.570796326794897 -3.141592653589793  1.570796326794897 1.570796326794897 -3.141592653589793  2.094395102393196 1.570796326794897 -3.141592653589793  2.617993877991494 1.570796326794897 -3.141592653589793  3.141592653589793 1.570796326794897 -3.141592653589793  -3.141592653589793 2.094395102393196 -3.141592653589793  -2.617993877991494 2.094395102393196 -3.141592653589793  -2.094395102393196 2.094395102393196 -3.141592653589793  -1.570796326794897 2.094395102393196 -3.141592653589793  -1.047197551196598 2.094395102393196 -3.141592653589793  -0.5235987755982987 2.094395102393196 -3.141592653589793  0 2.094395102393196 -3.141592653589793  0.5235987755982987 2.094395102393196 -3.141592653589793  1.047197551196597 2.094395102393196 -3.141592653589793  1.570796326794897 2.094395102393196 -3.141592653589793  2.094395102393196 2.094395102393196 -3.141592653589793  2.617993877991494 2.094395102393196 -3.141592653589793  3.141592653589793 2.094395102393196 -3.141592653589793  -3.141592653589793 2.617993877991494 -3.141592653589793  -2.617993877991494 2.617993877991494 -3.141592653589793  -2.094395102393196 2.617993877991494 -3.141592653589793  -1.570796326794897 2.617993877991494 -3.141592653589793  -1.047197551196598 2.617993877991494 -3.141592653589793  -0.5235987755982987 2.617993877991494 -3.141592653589793  0 2.617993877991494 -3.141592653589793  0.5235987755982987 2.617993877991494 -3.141592653589793  1.047197551196597 2.617993877991494 -3.141592653589793  1.570796326794897 2.617993877991494 -3.141592653589793  2.094395102393196 2.617993877991494 -3.141592653589793  2.617993877991494 2.617993877991494 -3.141592653589793  3.141592653589793 2.617993877991494 -3.141592653589793  -3.141592653589793 3.141592653589793 -3.141592653589793  -2.617993877991494 3.141592653589793 -3.141592653589793  -2.094395102393196 3.141592653589793 -3.141592653589793  -1.570796326794897 3.141592653589793 -3.141592653589793  -1.047197551196598 3.141592653589793 -3.141592653589793  -0.5235987755982987 3.141592653589793 -3.141592653589793  0 3.141592653589793 -3.141592653589793  0.5235987755982987 3.141592653589793 -3.141592653589793  1.047197551196597 3.141592653589793 -3.141592653589793  1.570796326794897 3.141592653589793 -3.141592653589793  2.094395102393196 3.141592653589793 -3.141592653589793  2.617993877991494 3.141592653589793 -3.141592653589793  3.141592653589793 3.141592653589793 -3.141592653589793  -3.141592653589793 -3.141592653589793 -2.617993877991494  -2.617993877991494 -3.141592653589793 -2.617993877991494  -2.094395102393196 -3.141592653589793 -2.617993877991494  -1.570796326794897 -3.141592653589793 -2.617993877991494  -1.047197551196598 -3.141592653589793 -2.617993877991494  -0.5235987755982987 -3.141592653589793 -2.617993877991494  0 -3.141592653589793 -2.617993877991494  0.5235987755982987 -3.141592653589793 -2.617993877991494  1.047197551196597 -3.141592653589793 -2.617993877991494  1.570796326794897 
[...]
<PointData  Scalars="f_257324"> 
<DataArray  type="Float64"  Name="f_257324"  format="ascii">6.0072510982316092e-02  6.6403731779905856e-02  -2.6941566562083991e-02  7.2470340680473632e-03  -1.7854493340858522e-03  -3.7080518193550682e-02  -7.0198808681993741e-02  -3.5877832111345605e-02  -1.2844919232604847e-02  1.7047001087747685e-03  -3.5110851544132488e-02  5.4415912263896596e-02  6.0072510982316092e-02  4.8368471189187835e-02  -7.0684501846129577e-01  -1.0316082348025426e+00  -1.1889425121884207e+00  -1.0264727866301593e+00  -8.5596829061030200e-01  -5.8888443697821889e-02  6.9332917655866633e-01  1.1540732119846593e+00  1.1493578720110522e+00  9.5939368778637280e-01  8.4449602108923028e-01  4.8368471189187835e-02  7.8325985583071397e-03  -1.1574996161142712e+00  -1.4025787078329233e+00  -1.2668811305540963e+00  -1.6077026529278935e+00  -9.5551319871672435e-01  3.3001661140992698e-02  1.0196367351214426e+00  1.4098598664586408e+00  1.3210812796135076e+00  1.6150386208700311e+00  1.0208124884250389e+00  7.8325985583071397e-03  -1.2293757912446081e-02  -1.1389525648737528e+00  -1.3343364061172984e+00  -1.7865958879955002e+00  -1.3217651406471016e+00  -1.1454407624745588e+00  -9.6960032663734579e-03  1.1954573509777191e+00  1.2674942169985597e+00  1.7724180919954495e+00  1.2633942203537560e+00  1.1934845127270723e+00  -1.2293757912446081e-02  3.0956588792006932e-02  -9.5400602529444489e-01  -1.6188149800428693e+00  -1.2646208119898192e+00  -1.4038370100713840e+00  -1.1588850902888947e+00  1.0209653545181467e-02  1.0319218708595028e+00  1.6153775802109533e+00  1.3120421638074726e+00  1.4025451391929367e+00  1.0170386093240273e+00  3.0956588792006932e-02  -5.4255345659657041e-02  -8.6295100231589961e-01  -1.0188342720392578e+00  -1.1949382416132794e+00  -1.0179399871044921e+00  -6.9090729261176298e-01  4.4863908632464131e-02  8.5480562672831562e-01  9.5608350258282915e-01  1.1395489489057851e+00  1.1521103751086843e+00  6.9335505834373046e-01  -5.4255345659657041e-02  -4.5185305797231214e-02  -3.9609704967498729e-02  -1.1192933411992434e-02  1.3831783404072278e-02  -2.3723158851655015e-02  5.6114206052716775e-02  5.0568608820289324e-02  5.7482958416960162e-02  -3.1749744263276029e-02  8.1425894424791406e-03  -1.2181610699442607e-02  -5.3672523259065116e-02  -4.5185305797231214e-02  -6.4177421407349472e-02  6.9424616007461093e-01  1.1554045541500226e+00  1.1482799220450572e+00  9.6411891737402944e-01  8.5491400447292076e-01  3.7835318902623157e-02  -6.9129876473599960e-01  -1.0250825116657194e+00  -1.1844706416306738e+00  -1.0243843502452266e+00  -8.4441757210110602e-01  -6.4177421407349472e-02  2.7953365639070544e-02  1.0293707926425200e+00  1.4060245493956671e+00  1.3192295068902238e+00  1.6156192993004728e+00  1.0226623658848211e+00  6.7007046994435569e-03  -1.1603615866566912e+00  -1.4041649163646255e+00  -1.2712006486795611e+00  -1.6098896704652252e+00  -9.5541251688505191e-01  2.7953365639070544e-02  -1.2179649592918904e-02  1.2009300018695119e+00  1.2736055840529414e+00  1.7856928552464042e+00  1.2666001444919190e+00  1.1882923954451792e+00  -1.2326628752039562e-02  -1.1470821155629953e+00  -1.3247956115208281e+00  -1.7810868102571804e+00  -1.3193624368901218e+00  -1.1475620934223072e+00  -1.2179649592918904e-02  1.3390676095456380e-02  1.0252029743960553e+00  1.6153970315104731e+00  1.3150302989596041e+00  1.4094896995672488e+00  1.0143169324950916e+00  2.5703328873058848e-02  -9.6335522530966555e-01  -1.5946073614537823e+00  -1.2722259475928968e+00  -1.4013751909139487e+00  -1.1504136898686494e+00  1.3390676095456380e-02  3.7223416126644329e-02  8.5948822920028989e-01  9.5669737840403690e-01  1.1454504424240215e+00  1.1582770632099502e+00  7.0381755874204566e-01  -6.8222404479639176e-02  -8.4653677325942389e-01  -1.0224399201071932e+00  -1.1873011538687759e+00  -1.0204815529620825e+00  -6.9099688006996529e-01  3.7223416126644329e-02  6.0072510982316092e-02  6.6403731779905856e-02  -2.6941566562083991e-02  7.2470340680473632e-03  -1.7854493340858522e-03  -3.7080518193550682e-02  -7.0198808681993741e-02  -3.5877832111345605e-02  -1.2844919232604847e-02  1.7047001087747685e-03  -3.5110851544132488e-02  5.4415912263896596e-02  6.0072510982316092e-02  5.8532480600673918e-02  1.1505063357838781e-02  -4.3156446973850314e-02  -1.8913260521118925e-03  -6.7120045876557954e-02  -5.7504668009184849e-02  -3.5316330860137163e-02  -9.3670595883094121e-03  1.9669140159821890e-02  -4.4529177123887919e-03  4.4165007535824703e-02  8.8900133233954848e-02  5.8532480600673918e-02  -7.6517735783397621e-03  -6.4029066071328655e-01  -8.9094190036998244e-01  -9.8554984904981968e-01  -9.8654016285277768e-01  -6.7303503642306506e-01  -2.6563163033430207e-02  6.4071460237637556e-01  9.2869902840684793e-01  9.6394070939185739e-01  9.1305716081265342e-01  6.8919533518092935e-01  -7.6517735783397621e-03  -2.5247631018431728e-02  -9.3220568994576036e-01  -1.2068637016762673e+00  -1.3363325563190143e+00  -1.4142223620631955e+00  -7.9967380402450483e-01  4.7298119552928924e-02  8.8612199420713711e-01  1.1996322602589820e+00  1.3704542716967956e+00  1.3907693268908921e+00  8.5652688472564764e-01  -2.5247631018431728e-02  6.3487913907687649e-03  -9.6489051365218692e-01  -1.3714975099155857e+00  -1.5972570049210819e+00  -1.3212460859774569e+00  -9.8018458983548795e-01  7.8001707855104487e-03  9.7394962667280549e-01  1.3372408791976049e+00  1.5962643410614712e+00  1.2504172926589192e+00  1.0174055220595939e+00  6.3487913907687649e-03  -4.4521763401138038e-02  -9.2754777738178384e-01  -1.3861515851537209e+00  -1.2457500927919798e+00  -1.3409326780491118e+00  -1.0210346616770387e+00  7.2398271366641745e-02  9.8137701347115092e-01  1.4004698963107478e+00  1.3098089830072803e+00  1.3292296923809588e+00  8.7560412382617892e-01  -4.4521763401138038e-02  -8.4758410344372578e-02  -6.9502453327897717e-01  -8.5219621098733078e-01  -1.0127502026348669e+00  -8.7458459828138690e-01  -5.1045043296532078e-01  6.0707163074459301e-02  6.7549203660756352e-01  8.0947504932207948e-01  9.8355731275349267e-01  1.0186097237845024e+00  5.1665964712189250e-01  -8.4758410344372578e-02  -5.1903590305195091e-02  -3.2193608563138828e-03  1.8643151581496101e-02  -5.4062968559300852e-03  4.6352904728879665e-02  8.2218212818639613e-02  3.7210102012832424e-02  2.2135694955867934e-02  -4.2537634627438932e-02  -7.4816609886258429e-03  -7.2428960952291233e-02  -5.7154803910178832e-02  -5.1903590305195091e-02  -1.4797232846447388e-02  6.3117733608295068e-01  9.2573085097484420e-01  9.6606490847645909e-01  9.2494320530089602e-01  7.0011149452689836e-01  1.2146407577219747e-02  -6.4211746585077911e-01  -8.8168223230536624e-01  -9.7464120777600760e-01  -9.8111570808815940e-01  -6.7778628179724376e-01  -1.4797232846447388e-02  4.4069774254523540e-02  8.9160444790837612e-01  1.2003545265914037e+00  1.3729039069595226e+00  1.3898372146966078e+00  8.5247393702564678e-01  -3.0738212164578331e-02  -9.2506619444649452e-01  -1.2057421791201424e+00  -1.3366144979433761e+00  -1.3976548594924159e+00  -8.0108568614790432e-01  4.4069774254523540e-02  5.4870905839827788e-03  9.8229877577932634e-01  1.3365254827342081e+00  1.6071920003593057e+00  1.2408613863861788e+00  1.0212067018424054e+00  -1.7747553070877496e-03  -9.6372977444461172e-01  -1.3659107895100644e+00  -1.6005424197053155e+00  -1.3212255993382978e+00  -9.7996205189552854e-01  5.4870905839827788e-03  7.9605969161534507e-02  9.8371359293640881e-01  1.4043891720834862e+00  1.3156239864735786e+00  1.3374921758976690e+00  8.7834973352964829e-01  -5.2559633802346885e-02  -9.1966616174212934e-01  -1.3889810367744675e+00  -1.2540868818941175e+00  -1.3401875007271149e+00  -1.0286269953069387e+00  7.9605969161534507e-02  6.7601522521596166e-02  6.8709509240224187e-01  7.9955952398741226e-01  9.8040598422925584e-01  1.0237036171141947e+00  5.1992839862445961e-01  -7.5054492017401470e-02  -7.0341606203556073e-01  -8.4176767417565579e-01  -1.0015567632345794e+00  -8.7645469298205092e-01  -5.2163137854580466e-01  6.7601522521596166e-02  5.8532480600673918e-02  1.1505063357838781e-02  -4.3156446973850314e-02  -1.8913260521118925e-03  -6.7120045876557954e-02  -5.7504668009184849e-02  -3.5316330860137163e-02  -9.3670595883094121e-03  1.9669140159821890e-02  -4.4529177123887919e-03  4.4165007535824703e-02  8.8900133233954848e-02  5.8532480600673918e-02  1.1060434433046953e-02  2.1375785863969338e-02  -2.3996622793502329e-02  -3.2284582286471193e-02  -5.1045875126559205e-02  -4.4848831966261479e-02  -1.8339742449230499e-02  -5.4163502560902713e-05  3.4504835356352952e-02  1.5400154817104959e-02  4.6128676663868315e-02  6.3022747408911488e-03  1.1060434433046953e-02  1.8205247710867088e-02  -3.4550723372935949e-01  -5.3391383369155632e-01  -6.1896966018247235e-01  -5.9523380032353668e-01  -3.2446838920934790e-01  -1.2285102737688567e-02  3.3426209538069324e-01  5.3801839373048388e-01  6.5527883302329282e-01  5.8084311325349114e-01  3.3739030887509225e-01  1.8205247710867088e-02  -2.3327757305961764e-02  -5.4423867484803978e-01  -8.0572062114664555e-01  -9.7726796503778812e-01  -8.5129174802593055e-01  -4.3685529804144158e-01  1.5234486166097778e-02  5.3703877106225983e-01  8.0934243889539947e-01  9.7995397965521402e-01  8.2441663948564869e-01  4.6866678148944491e-01  -2.3327757305961764e-02  -2.1411345303644348e-02  -6.4886428854799671e-01  -9.8355502054787847e-01  -1.0440719342656717e+00  -9.1593438081797041e-01  -5.3182785013130318e-01  3.4512153565012207e-02  6.2103480290260749e-01  9.7532905911723677e-01  1.0391701679986187e+00  9.1943512756463908e-01  5.6087906235818941e-01  -2.1411345303644348e-02  -5.7017704270178556e-02  -5.7522111681385257e-01  -8.2272047252414360e-01  -9.1802191103795772e-01  -8.2368123520334402e-01  -4.9926185999104544e-01  5.7603543438114323e-02  6.0332704225051803e-01  8.5685922087826494e-01  9.1023402622980620e-01  8.1213718495098908e-01  4.6957702239400118e-01  -5.7017704270178556e-02  -1.7686406200419016e-02  -3.3804229880782866e-01  -4.7773346352632923e-01  -5.5663018716899892e-01  -4.5652188525908693e-01  -1.9347194272524165e-01  4.4511378656565175e-02  3.1155239723018952e-01  4.3687955035614257e-01  5.2723063998312747e-01  5.0336659331735212e-01  2.0234699522774716e-01  -1.7686406200419016e-02  -2.6070668107311425e-02  -5.8904457131222715e-03  3.0601581102822767e-02  1.9979589879597765e-02  5.5883045071062641e-02  1.9339228568077901e-02  2.4069039643213472e-02  1.7177439901619049e-02  -2.9620739956014604e-02  -3.4458530268634220e-02  -4.9387501693956441e-02  -4.6887057786120068e-02  -2.6070668107311425e-02  -1.5593277997877367e-02  3.2969030162700708e-01  5.3238619205372928e-01  6.5999300263242500e-01  5.8104028513228412e-01  3.4456735013096029e-01  1.4601421547462126e-02  -3.3999050336037606e-01  -5.3125929042517384e-01  -6.0955288708052846e-01  -5.9949745395984733e-01  -3.1530821645474416e-01  -1.5593277997877367e-02  2.5645092537164547e-02  5.1977585912866597e-01  8.1045129858322285e-01  9.7862690288028176e-01  8.1990047706364511e-01  4.6700601556706889e-01  -3.4712189364559783e-02  -5.4467469911394895e-01  -8.0753888918887762e-01  -9.6633102289847350e-01  -8.4958069085658583e-01  -4.3242962684972219e-01  2.5645092537164547e-02  3.4989077996567440e-02  6.2213685012240794e-01  9.7177615017484487e-01  1.0511813746680054e+00  9.1110455125745227e-01  5.5742784216188956e-01  -3.0216760907481627e-02  -6.5502960179689185e-01  -9.7575489934568405e-01  -1.0454105345553186e+00  -9.1097942683733157e-01  -5.3660119970110864e-01  3.4989077996567440e-02  5.1652484508159992e-02  6.0162666519142860e-01  8.5547592041998033e-01  9.1600907447496049e-01  8.2845740177971194e-01  4.5778261856495972e-01  -5.7837757269100072e-02  -5.7513756135702732e-01  -8.2459766947604884e-01  -9.1422647875311724e-01  -8.2638303265206714e-01  -5.0415154880395119e-01  5.1652484508159992e-02  5.1996863483579597e-02  3.0536766884699290e-01  4.3370256145486341e-01  5.3068305408453487e-01  5.0823119601362754e-01  2.0169723992046756e-01  -1.4055138309127040e-02  -3.3304500207490806e-01  -4.7093145098699535e-01  -5.6148619644318754e-01  -4.5883126257373547e-01  -2.0666153234533763e-01  5.1996863483579597e-02  1.1060434433046953e-02  2.1375785863969338e-02  -2.3996622793502329e-02  -3.2284582286471193e-02  -5.1045875126559205e-02  -4.4848831966261479e-02  -1.8339742449230499e-02  -5.4163502560902713e-05  3.4504835356352952e-02  1.5400154817104959e-02  4.6128676663868315e-02  6.3022747408911488e-03  1.1060434433046953e-02  6.9474211870865863e-03  -1.2286703826569059e-02  -1.4764799721284808e-02  -5.0167603658221810e-03  -1.5512159123736307e-02  -1.3408876458964752e-02  4.1920853111041060e-04  -2.2495115673094711e-03  1.7423980337102095e-02  3.4606427466860580e-02  1.8916738771341295e-02  1.1987257888642747e-02  6.9474211870865863e-03  -7.2468487828328352e-03  -5.2610900812129324e-02  -5.4269881895020369e-02  -5.7608246711587915e-02  -4.8523968326588070e-02  -3.4760074546508679e-03  1.8339686500843538e-02  5.5876347363509493e-02  8.4890808440023752e-02  4.3132947744733349e-02  4.8342897861460088e-03  1.0566732379329462e-02  -7.2468487828328352e-03  -2.5692140283746855e-02  -7.8800684514180042e-02  -8.2413083911205526e-02  -6.3239954511501259e-02  -3.4882650977546804e-04  3.5725489184739244e-02  2.1339274073192430e-02  2.9716261574914991e-02  8.4210989954891180e-02  6.1298453600573510e-02  -1.1562404572451711e-04  -3.1454219198893865e-04  -2.5692140283746855e-02  -2.8078001997553472e-02  -5.1086454305944669e-02  -5.5090688915643386e-02  -7.5670998924611890e-03  6.2071580501308121e-02  5.3896340717195700e-02  -4.5474066156247816e-03  4.7297894022352203e-02  6.4112305755725033e-02  4.2322065084320947e-03  -5.1436756563003880e-02  -4.1982410141527357e-02  -2.8078001997553472e-02  -2.1743487494757820e-02  2.6034711928407134e-03  -3.8352203858693832e-03  5.2917032115896469e-02  1.0038338143441784e-01  4.3899470756607502e-02  1.9609988870366902e-02  4.9944244887202963e-02  -4.1359719785946762e-03  -5.4879926751514152e-02  -8.6514026667342633e-02  -7.8390265885853905e-02  -2.1743487494757820e-02  -1.4808631499245590e-02  -3.3432161237042105e-03  5.0306840473573530e-03  4.8228144467797739e-02  8.0588678316929299e-02  5.0651989807435974e-02  1.9959382454253678e-02  5.6457292708863363e-03  -4.5910018753447038e-02  -4.9752380137124283e-02  -5.3744456019565803e-02  -5.0665609099947710e-02  -1.4808631499245590e-02  6.2822066996567839e-04  1.3468077068199559e-02  2.4997062144966949e-02  2.6326857387065306e-02  2.6547729562235337e-02  6.8688393341777903e-03  6.5522271735040756e-03  -7.5614130517218216e-03  -1.8005920685413863e-02  5.1333219091622070e-03  -1.1486228622547348e-02  -2.9220743776366891e-02  6.2822066996567839e-04  1.3453871122631099e-02  4.7549764412852059e-02  7.7488835033673945e-02  4.9763980087209357e-02  7.9242293659623417e-03  2.7146780288424934e-03  -2.0269247317248815e-03  -5.0164292411027871e-02  -4.4031880142358107e-02  -3.7557288685648914e-02  -5.0712282904225678e-02  -1.2925078914028431e-03  1.3453871122631099e-02  6.1360890611750398e-03  4.7853991310806442e-02  8.3635001979699253e-02  4.9399956983292179e-02  -9.2714889281242680e-03  -7.2903920111236096e-03  -2.8987980171871333e-02  -8.0908596129753152e-02  -7.8761386357905430e-02  -6.2743938071360070e-02  3.6295266748088951e-03  4.5932112866409497e-02  6.1360890611750398e-03  -9.2464298473537640e-03  5.0329412893396049e-02  6.1555988233644152e-02  -3.1248414866238425e-03  -5.6164234995449931e-02  -5.7599448060783758e-02  -2.8098750274699994e-02  -4.5689354360436370e-02  -5.0312024854595704e-02  -1.8378117504979927e-03  7.4993913890837038e-02  4.6818053511192073e-02  -9.2464298473537640e-03  2.0996676822172725e-02  5.3515403445741336e-02  5.7607554040151393e-03  -5.7779576656131683e-02  -8.2582824160394822e-02  -8.0869299534079842e-02  -3.8134964328856151e-02  -6.3072307637221750e-04  -1.9990552497741705e-03  4.7958780698043803e-02  7.7957523155094938e-02  4.2451744738603379e-02  2.0996676822172725e-02  1.9276777478944213e-02  -3.5752692453913954e-03  -4.3441128313260968e-02  -4.2470865574220001e-02  -4.6716636519014844e-02  -5.3839512316358203e-02  -4.8750644872984474e-03  -1.8768767107683762e-04  1.2922077438645452e-02  3.1354260265073507e-02  8.3470346475590124e-02  4.7943643881238854e-02  1.9276777478944213e-02  6.9474211870865863e-03  -1.2286703826569059e-02  -1.4764799721284808e-02  -5.0167603658221810e-03  -1.5512159123736307e-02  -1.3408876458964752e-02  4.1920853111041060e-04  -2.2495115673094711e-03  1.7423980337102095e-02  3.4606427466860580e-02  1.8916738771341295e-02  1.1987257888642747e-02  6.9474211870865863e-03  -2.0677593989900551e-02  -4.2714887747193779e-02  -5.7785971733979626e-02  -3.4714331356898262e-02  -3.7464202087296887e-02  1.7249260296256518e-02  1.4214479328212610e-02  2.8933949067742413e-02  6.3441531643018828e-02  2.0499155528936178e-02  2.7725051597711974e-02  7.9133831139754983e-04  -2.0677593989900551e-02  -1.7389060951159410e-02  2.0060781852768764e-01  5.1133358553830055e-01  5.3098841555639631e-01  4.3989084235382175e-01  3.0686492396050696e-01  4.7104996594836655e-02  -2.0809007764753107e-01  -4.7336455939857930e-01  -5.7206566508859924e-01  -4.7520385176458491e-01  -3.3516449735145482e-01  -1.7389060951159410e-02  -5.3125577806985812e-02  4.5383115182124645e-01  8.3129762322278089e-01  9.1645527761099976e-01  8.5001297570534606e-01  6.0256423734412135e-01  5.3186676314059725e-02  -5.1078481774712114e-01  -8.2450232775627841e-01  -9.1511116063978959e-01  -8.1650252487802155e-01  -5.7061124717663836e-01  -5.3125577806985812e-02  -2.1969655160074628e-02  5.6545816029993023e-01  9.1064336734011775e-01  1.0520919551272421e+00  9.7112990182301506e-01  6.1876778441451397e-01  1.7628683228525757e-02  -5.3643871715964719e-01  -9.0764498650831227e-01  -1.0411663612968900e+00  -9.8051170973612201e-01  -6.4362682663400572e-01  -2.1969655160074628e-02  -1.6303165966433955e-02  4.7052385783206774e-01  8.2636586846495197e-01  9.8904083605732673e-01  8.0108559930464329e-01  5.1935855040244572e-01  2.1732670721581297e-02  -4.3600482780893585e-01  -8.6399864141747995e-01  -9.7242817070091736e-01  -8.0723318299592595e-01  -5.3947820301394389e-01  -1.6303165966433955e-02  1.1172911054796538e-02  3.3533324045888502e-01  5.7451951938141521e-01  6.4357252896270611e-01  5.3702544367075022e-01  3.2641413456666468e-01  2.0658569259980874e-04  -3.1345520410951866e-01  -6.1033987136967494e-01  -6.2373479459487846e-01  -5.2122204122019933e-01  -3.4631479057733322e-01  1.1172911054796538e-02  1.7211675649412190e-02  2.8126918215459665e-02  4.8683053317178496e-02  1.7811412991052440e-02  3.7858228162068214e-02  -7.3774547013136108e-03  -1.0082675750562336e-02  -4.5797495546477857e-02  -2.9734611022250650e-02  -1.3889141315024493e-02  -1.1508356615281727e-02  5.6824174834085020e-03  1.7211675649412190e-02  4.7011167938102269e-02  -2.0369591179055782e-01  -4.6586071661661466e-01  -5.6634665196107337e-01  -4.7424484284822277e-01  -3.3802924796435085e-01  -2.6351890992947987e-02  2.2233683552283007e-01  5.1400449699902973e-01  5.4390045827895095e-01  4.3243221882618538e-01  2.9683266685488224e-01  4.7011167938102269e-02  4.7437718317579584e-02  -5.0410848209273751e-01  -8.2428779031458455e-01  -9.1432928313071049e-01  -8.2968977887238060e-01  -5.7688249477006748e-01  -5.5424572123623082e-02  4.7538413749984731e-01  8.3013006324637761e-01  9.2343522466720174e-01  8.4947085243089249e-01  6.0250550824739602e-01  4.7437718317579584e-02  2.2612098390379930e-02  -5.3025777143726827e-01  -9.2665403704454752e-01  -1.0400672232220045e+00  -9.9095797020150711e-01  -6.5814162674152110e-01  -2.0756148406651610e-02  5.6739388188145545e-01  9.1136268952992239e-01  1.0589333867506585e+00  9.8331892209788896e-01  6.2310364611242186e-01  2.2612098390379930e-02  1.1206287976718259e-02  -4.3899806674074215e-01  -8.4623382898831478e-01  -9.6378367888951066e-01  -8.0453373797166539e-01  -5.4861433410176730e-01  -2.902678