<?xml version="1.0"?>
<VTKFile type="UnstructuredGrid"  version="0.1"  >
<UnstructuredGrid>
<Piece  NumberOfPoints="2197" NumberOfCells="10368">
<Points>
<DataArray  type="Float64"  NumberOfComponents="3"  format="ascii">-3.141592653589793 -3.141592653589793 -3.141592653589793  -2.617993877991494 -3.141592653589793 -3.141592653589793  -2.094395102393196 -3.141592653589793 -3.141592653589793  -1.570796326794897 -3.141592653589793 -3.141592653589793  -1.047197551196598 -3.141592653589793 -3.141592653589793  -0.5235987755982987 -3.141592653589793 -3.141592653589793  0 -3.141592653589793 -3.141592653589793  0.5235987755982987 -3.141592653589793 -3.141592653589793  1.047197551196597 -3.141592653589793 -3.141592653589793  1.570796326794897 -3.141592653589793 -3.141592653589793  2.094395102393196 -3.141592653589793 -3.141592653589793  2.617993877991494 -3.141592653589793 -3.141592653589793  3.141592653589793 -3.141592653589793 -3.141592653589793  -3.141592653589793 -2.617993877991494 -3.141592653589793  -2.617993877991494 -2.617993877991494 -3.141592653589793  -2.094395102393196 -2.617993877991494 -3.141592653589793  -1.570796326794897 -2.617993877991494 -3.141592653589793  -1.047197551196598 -2.617993877991494 -3.141592653589793  -0.5235987755982987 -2.617993877991494 -3.141592653589793  0 -2.617993877991494 -3.141592653589793  0.5235987755982987 -2.617993877991494 -3.141592653589793  1.047197551196597 -2.617993877991494 -3.141592653589793  1.570796326794897 -2.617993877991494 -3.141592653589793  2.094395102393196 -2.617993877991494 -3.141592653589793  2.617993877991494 -2.617993877991494 -3.141592653589793  3.141592653589793 -2.617993877991494 -3.141592653589793  -3.141592653589793 -2.094395102393196 -3.141592653589793  -2.617993877991494 -2.094395102393196 -3.141592653589793  -2.094395102393196 -2.094395102393196 -3.141592653589793  -1.570796326794897 -2.094395102393196 -3.141592653589793  -1.047197551196598 -2.094395102393196 -3.141592653589793  -0.5235987755982987 -2.094395102393196 -3.141592653589793  0 -2.094395102393196 -3.141592653589793  0.5235987755982987 -2.094395102393196 -3.141592653589793  1.047197551196597 -2.094395102393196 -3.141592653589793  1.570796326794897 -2.094395102393196 -3.141592653589793  2.094395102393196 -2.094395102393196 -3.141592653589793  2.617993877991494 -2.094395102393196 -3.141592653589793  3.141592653589793 -2.094395102393196 -3.141592653589793  -3.141592653589793 -1.570796326794897 -3.141592653589793  -2.617993877991494 -1.570796326794897 -3.141592653589793  -2.094395102393196 -1.570796326794897 -3.141592653589793  -1.570796326794897 -1.570796326794897 -3.141592653589793  -1.047197551196598 -1.570796326794897 -3.141592653589793  -0.5235987755982987 -1.570796326794897 -3.141592653589793  0 -1.570796326794897 -3.141592653589793  0.5235987755982987 -1.570796326794897 -3.141592653589793  1.047197551196597 -1.570796326794897 -3.141592653589793  1.570796326794897 -1.570796326794897 -3.141592653589793  2.094395102393196 -1.570796326794897 -3.141592653589793  2.617993877991494 -1.570796326794897 -3.141592653589793  3.141592653589793 -1.570796326794897 -3.141592653589793  -3.141592653589793 -1.047197551196598 -3.141592653589793  -2.617993877991494 -1.047197551196598 -3.141592653589793  -2.094395102393196 -1.047197551196598 -3.141592653589793  -1.570796326794897 -1.047197551196598 -3.141592653589793  -1.047197551196598 -1.047197551196598 -3.141592653589793  -0.5235987755982987 -1.047197551196598 -3.141592653589793  0 -1.047197551196598 -3.141592653589793  0.5235987755982987 -1.047197551196598 -3.141592653589793  1.047197551196597 -1.047197551196598 -3.141592653589793  1.570796326794897 -1.047197551196598 -3.141592653589793  2.094395102393196 -1.047197551196598 -3.141592653589793  2.617993877991494 -1.047197551196598 -3.141592653589793  3.141592653589793 -1.047197551196598 -3.141592653589793  -3.141592653589793 -0.5235987755982987 -3.141592653589793  -2.617993877991494 -0.5235987755982987 -3.141592653589793  -2.094395102393196 -0.5235987755982987 -3.141592653589793  -1.570796326794897 -0.5235987755982987 -3.141592653589793  -1.047197551196598 -0.5235987755982987 -3.141592653589793  -0.5235987755982987 -0.5235987755982987 -3.141592653589793  0 -0.5235987755982987 -3.141592653589793  0.5235987755982987 -0.5235987755982987 -3.141592653589793  1.047197551196597 -0.5235987755982987 -3.141592653589793  1.570796326794897 -0.5235987755982987 -3.141592653589793  2.094395102393196 -0.5235987755982987 -3.141592653589793  2.617993877991494 -0.5235987755982987 -3.141592653589793  3.141592653589793 -0.5235987755982987 -3.141592653589793  -3.141592653589793 0 -3.141592653589793  -2.617993877991494 0 -3.141592653589793  -2.094395102393196 0 -3.141592653589793  -1.570796326794897 0 -3.141592653589793  -1.047197551196598 0 -3.141592653589793  -0.5235987755982987 0 -3.141592653589793  0 0 -3.141592653589793  0.5235987755982987 0 -3.141592653589793  1.047197551196597 0 -3.141592653589793  1.570796326794897 0 -3.141592653589793  2.094395102393196 0 -3.141592653589793  2.617993877991494 0 -3.141592653589793  3.141592653589793 0 -3.141592653589793  -3.141592653589793 0.5235987755982987 -3.141592653589793  -2.617993877991494 0.5235987755982987 -3.141592653589793  -2.094395102393196 0.5235987755982987 -3.141592653589793  -1.570796326794897 0.5235987755982987 -3.141592653589793  -1.047197551196598 0.5235987755982987 -3.141592653589793  -0.5235987755982987 0.5235987755982987 -3.141592653589793  0 0.5235987755982987 -3.141592653589793  0.5235987755982987 0.5235987755982987 -3.141592653589793  1.047197551196597 0.5235987755982987 -3.141592653589793  1.570796326794897 0.5235987755982987 -3.141592653589793  2.094395102393196 0.5235987755982987 -3.141592653589793  2.617993877991494 0.5235987755982987 -3.141592653589793  3.141592653589793 0.5235987755982987 -3.141592653589793  -3.141592653589793 1.047197551196597 -3.141592653589793  -2.617993877991494 1.047197551196597 -3.141592653589793  -2.094395102393196 1.047197551196597 -3.141592653589793  -1.570796326794897 1.047197551196597 -3.141592653589793  -1.047197551196598 1.047197551196597 -3.141592653589793  -0.5235987755982987 1.047197551196597 -3.141592653589793  0 1.047197551196597 -3.141592653589793  0.5235987755982987 1.047197551196597 -3.141592653589793  1.047197551196597 1.047197551196597 -3.141592653589793  1.570796326794897 1.047197551196597 -3.141592653589793  2.094395102393196 1.047197551196597 -3.141592653589793  2.617993877991494 1.047197551196597 -3.141592653589793  3.141592653589793 1.047197551196597 -3.141592653589793  -3.141592653589793 1.570796326794897 -3.141592653589793  -2.617993877991494 1.570796326794897 -3.141592653589793  -2.094395102393196 1.570796326794897 -3.141592653589793  -1.570796326794897 1.570796326794897 -3.141592653589793  -1.047197551196598 1.570796326794897 -3.141592653589793  -0.5235987755982987 1.570796326794897 -3.141592653589793  0 1.570796326794897 -3.141592653589793  0.5235987755982987 1.570796326794897 -3.141592653589793  1.047197551196597 1.570796326794897 -3.141592653589793  1.570796326794897 1.570796326794897 -3.141592653589793  2.094395102393196 1.570796326794897 -3.141592653589793  2.617993877991494 1.570796326794897 -3.141592653589793  3.141592653589793 1.570796326794897 -3.141592653589793  -3.141592653589793 2.094395102393196 -3.141592653589793  -2.617993877991494 2.094395102393196 -3.141592653589793  -2.094395102393196 2.094395102393196 -3.141592653589793  -1.570796326794897 2.094395102393196 -3.141592653589793  -1.047197551196598 2.094395102393196 -3.141592653589793  -0.5235987755982987 2.094395102393196 -3.141592653589793  0 2.094395102393196 -3.141592653589793  0.5235987755982987 2.094395102393196 -3.141592653589793  1.047197551196597 2.094395102393196 -3.141592653589793  1.570796326794897 2.094395102393196 -3.141592653589793  2.094395102393196 2.094395102393196 -3.141592653589793  2.617993877991494 2.094395102393196 -3.141592653589793  3.141592653589793 2.094395102393196 -3.141592653589793  -3.141592653589793 2.617993877991494 -3.141592653589793  -2.617993877991494 2.617993877991494 -3.141592653589793  -2.094395102393196 2.617993877991494 -3.141592653589793  -1.570796326794897 2.617993877991494 -3.141592653589793  -1.047197551196598 2.617993877991494 -3.141592653589793  -0.5235987755982987 2.617993877991494 -3.141592653589793  0 2.617993877991494 -3.141592653589793  0.5235987755982987 2.617993877991494 -3.141592653589793  1.047197551196597 2.617993877991494 -3.141592653589793  1.570796326794897 2.617993877991494 -3.141592653589793  2.094395102393196 2.617993877991494 -3.141592653589793  2.617993877991494 2.617993877991494 -3.141592653589793  3.141592653589793 2.617993877991494 -3.141592653589793  -3.141592653589793 3.141592653589793 -3.141592653589793  -2.617993877991494 3.141592653589793 -3.141592653589793  -2.094395102393196 3.141592653589793 -3.141592653589793  -1.570796326794897 3.141592653589793 -3.141592653589793  -1.047197551196598 3.141592653589793 -3.141592653589793  -0.5235987755982987 3.141592653589793 -3.141592653589793  0 3.141592653589793 -3.141592653589793  0.5235987755982987 3.141592653589793 -3.141592653589793  1.047197551196597 3.141592653589793 -3.141592653589793  1.570796326794897 3.141592653589793 -3.141592653589793  2.094395102393196 3.141592653589793 -3.141592653589793  2.617993877991494 3.141592653589793 -3.141592653589793  3.141592653589793 3.141592653589793 -3.141592653589793  -3.141592653589793 -3.141592653589793 -2.617993877991494  -2.617993877991494 -3.141592653589793 -2.617993877991494  -2.094395102393196 -3.141592653589793 -2.617993877991494  -1.570796326794897 -3.141592653589793 -2.617993877991494  -1.047197551196598 -3.141592653589793 -2.617993877991494  -0.5235987755982987 -3.141592653589793 -2.617993877991494  0 -3.141592653589793 -2.617993877991494  0.5235987755982987 -3.141592653589793 -2.617993877991494  1.047197551196597 -3.141592653589793 -2.617993877991494  1.570796326794897 
[...]
<PointData  Scalars="f_180388"> 
<DataArray  type="Float64"  Name="f_180388"  format="ascii">6.8506540940605765e-02  5.8005175887559997e-02  -1.6777331818158828e-04  -7.9838056595034207e-03  3.6795439466926223e-03  -4.1835101404142740e-02  -7.2381330542441613e-02  -3.6448891673886818e-02  -1.3120096214681652e-02  -7.0430517211097178e-03  -1.1684212898412181e-02  5.0855491827031939e-02  6.8506540940605765e-02  4.9126485307540574e-02  -6.2648638358196718e-01  -9.8245597377663108e-01  -1.0702868377488197e+00  -1.0363129159835367e+00  -7.1615278651328484e-01  -5.4038744273355060e-02  6.2106879424767814e-01  1.0547713328156583e+00  1.0671141120296987e+00  9.6729121006207830e-01  7.0422937859509571e-01  4.9126485307540574e-02  4.6314605726185728e-03  -1.0607389483504555e+00  -1.4677787284458579e+00  -1.5847555157569835e+00  -1.6106189460181590e+00  -9.6431113948003711e-01  9.1044743678266281e-03  9.7183661036851865e-01  1.4744395137968094e+00  1.6022627190307324e+00  1.6182959114715230e+00  1.0330939318819048e+00  4.6314605726185728e-03  1.0896722629905140e-03  -1.0553536095950027e+00  -1.6136312792158192e+00  -1.9156754225503616e+00  -1.6013668019431238e+00  -1.0629701116082337e+00  2.6902046976358296e-03  1.0752518770488360e+00  1.5819623907750116e+00  1.9032147336147824e+00  1.5778615666019715e+00  1.0734957166317907e+00  1.0896722629905140e-03  9.2915793383139805e-03  -9.6712500032993032e-01  -1.6180739108900086e+00  -1.5813384588079809e+00  -1.4713986246705266e+00  -1.0602432285665915e+00  5.0086324703804055e-03  1.0405708544252328e+00  1.6206009879818641e+00  1.5926160377895768e+00  1.4691481301772464e+00  9.7005783560218717e-01  9.2915793383139805e-03  -5.1324991916206208e-02  -7.1867529837335142e-01  -1.0306092799718847e+00  -1.0758361827307881e+00  -9.6859762870956245e-01  -6.1927927411482220e-01  4.7121151999856566e-02  7.1326041642064064e-01  9.6584085387272756e-01  1.0609808581950149e+00  1.0526686717205587e+00  6.2164356796133047e-01  -5.1324991916206208e-02  -5.7451297705091622e-02  -4.2801041485377680e-02  -4.4835834831075273e-03  -3.8624982057445568e-04  -3.4515312205848974e-03  5.1473186575566446e-02  6.0836507585029002e-02  5.1647567486114043e-02  -5.3292855433683794e-03  -5.4800338097474458e-03  -5.2182209091775674e-03  -4.8955474170174540e-02  -5.7451297705091622e-02  -5.8604497640851322e-02  6.2232177877827866e-01  1.0533157085872000e+00  1.0674044491854460e+00  9.7091292396579398e-01  7.1323129873022717e-01  4.0174575658084646e-02  -6.2024568469456132e-01  -9.7509816285955064e-01  -1.0715970849003722e+00  -1.0314630498870734e+00  -7.0813262011685041e-01  -5.8604497640851322e-02  6.2929158845847818e-03  9.7786148757855640e-01  1.4723961937276948e+00  1.6000264670752806e+00  1.6188494251936636e+00  1.0320052702655060e+00  5.2604191203661993e-03  -1.0608955124111750e+00  -1.4702774671942056e+00  -1.5861977886756393e+00  -1.6129101855460075e+00  -9.6261244354186615e-01  6.2929158845847818e-03  -1.6678967324917136e-03  1.0801493989892319e+00  1.5876707315685998e+00  1.9139018568768522e+00  1.5841285331073391e+00  1.0686320015520845e+00  -2.5601229951895149e-04  -1.0646960018798177e+00  -1.6033459956371503e+00  -1.9102903155731545e+00  -1.5997491396981309e+00  -1.0669787064797713e+00  -1.6678967324917136e-03  7.5038945126961413e-03  1.0349602206808706e+00  1.6195852172717728e+00  1.5942911426501425e+00  1.4731877119618926e+00  9.6807879541551578e-01  4.7304703235551641e-03  -9.7090509691734228e-01  -1.5991726190656921e+00  -1.5848790536878070e+00  -1.4684577277765913e+00  -1.0500542368663059e+00  7.5038945126961413e-03  3.6797665821171451e-02  7.1624494898673474e-01  9.6624195194744411e-01  1.0634886071314149e+00  1.0575866952627788e+00  6.3207908528874246e-01  -6.1421151797797606e-02  -7.0848586479414533e-01  -1.0323230666000955e+00  -1.0735618653228585e+00  -9.7268520191977270e-01  -6.1933514600753892e-01  3.6797665821171451e-02  6.8506540940605765e-02  5.8005175887559997e-02  -1.6777331818158828e-04  -7.9838056595034207e-03  3.6795439466926223e-03  -4.1835101404142740e-02  -7.2381330542441613e-02  -3.6448891673886818e-02  -1.3120096214681652e-02  -7.0430517211097178e-03  -1.1684212898412181e-02  5.0855491827031939e-02  6.8506540940605765e-02  5.8833168343379975e-02  2.0051958554075593e-02  -2.4941759304615799e-02  -1.5794042493565089e-02  -3.5896136019615436e-02  -6.2687859117433950e-02  -4.3216080077912028e-02  -1.7765943823739222e-02  2.1065028526269871e-02  1.2050630144629385e-02  4.1349912360160349e-02  7.2648778050429103e-02  5.8833168343379975e-02  6.5897806573666628e-03  -5.5624995940544575e-01  -8.4178335534515425e-01  -9.5197420183223891e-01  -9.3619352037218340e-01  -5.7523494396751718e-01  -3.0843605701184870e-02  5.5504638898254788e-01  8.6375826360994035e-01  9.4528168113106614e-01  8.7971710196401520e-01  5.8687459620458093e-01  6.5897806573666628e-03  -2.1856178135689051e-02  -8.6628990601380618e-01  -1.2980792890883466e+00  -1.5031310829465909e+00  -1.4048789050233286e+00  -7.9842548022535287e-01  2.7404917307351128e-02  8.3901455648292300e-01  1.2927760607019605e+00  1.4930178687511704e+00  1.4043855508856649e+00  8.5647535145763598e-01  -2.1856178135689051e-02  -1.3631323721298452e-02  -9.4575904175467151e-01  -1.4925235397904451e+00  -1.6950306894540237e+00  -1.4625790568175245e+00  -9.2155949784254576e-01  2.2276390772183848e-02  9.4361715866801710e-01  1.5041006856079273e+00  1.6955314712290375e+00  1.4237844470046399e+00  9.3561279744288295e-01  -1.3631323721298452e-02  -4.0268022561208615e-02  -8.9062326026092620e-01  -1.4038613532995916e+00  -1.4207918914302038e+00  -1.3417423305039138e+00  -9.0768467676379716e-01  4.1696375678512761e-02  9.3095465562311686e-01  1.3964121486723011e+00  1.4498039704450782e+00  1.3313508391497233e+00  8.3403801780513531e-01  -4.0268022561208615e-02  -6.9816868651922590e-02  -5.9065057647652286e-01  -8.5166224291601789e-01  -9.3338006520618022e-01  -8.3199853098030085e-01  -4.7117253657363484e-01  6.2775532440258838e-02  5.7881043704092106e-01  8.0335408002256681e-01  9.2608286818836805e-01  9.1037544577161511e-01  4.7182734453144937e-01  -6.9816868651922590e-02  -5.4878762315011972e-02  -9.5659577566175099e-03  1.7060015633714062e-02  1.4272110920437960e-02  4.0866939912357569e-02  6.8769656510756297e-02  4.8227257286146692e-02  2.5676534908448762e-02  -2.4095733464695009e-02  -2.0962133307766844e-02  -4.0770287455897752e-02  -6.0613863410830256e-02  -5.4878762315011972e-02  -2.3570983389610542e-02  5.4791393616396966e-01  8.6226738810534875e-01  9.4667497548430479e-01  8.9026176833349913e-01  5.9213565750115682e-01  1.5196429540652182e-02  -5.5719874080422116e-01  -8.3591993015608768e-01  -9.4381994409763781e-01  -9.3243851427921387e-01  -5.8133537597818807e-01  -2.3570983389610542e-02  2.7834922301010326e-02  8.4309400746583041e-01  1.2917707182365203e+00  1.4968207354121947e+00  1.4041999538017040e+00  8.5436382591118309e-01  -2.6792394132873872e-02  -8.6097222853659527e-01  -1.2951057155611057e+00  -1.5044405031018417e+00  -1.3899722691915717e+00  -7.9905360330529496e-01  2.7834922301010326e-02  1.6933221747327976e-02  9.5164192197912645e-01  1.5025615794003888e+00  1.7021867147528922e+00  1.4154344052320653e+00  9.3816574421806120e-01  -1.9799636513066654e-02  -9.4622364936138648e-01  -1.4894395783996108e+00  -1.6970874345614955e+00  -1.4613203036836582e+00  -9.2107456402960675e-01  1.6933221747327976e-02  4.6820074199675529e-02  9.3131081485576572e-01  1.4006903692367196e+00  1.4538044307971469e+00  1.3398534830835307e+00  8.3554783151065537e-01  -4.5694838246437018e-02  -8.8481283128331434e-01  -1.4018814811961164e+00  -1.4288294307725871e+00  -1.3399196964435318e+00  -9.1601857517419472e-01  4.6820074199675529e-02  6.7855543603835652e-02  5.9033110202577588e-01  7.9359514496038441e-01  9.2318308060912280e-01  9.1062967375205150e-01  4.7483353753415675e-01  -6.1417320162383528e-02  -5.9685014083406618e-01  -8.4232112200782394e-01  -9.2583565521650724e-01  -8.3499116123993311e-01  -4.7652829214938713e-01  6.7855543603835652e-02  5.8833168343379975e-02  2.0051958554075593e-02  -2.4941759304615799e-02  -1.5794042493565089e-02  -3.5896136019615436e-02  -6.2687859117433950e-02  -4.3216080077912028e-02  -1.7765943823739222e-02  2.1065028526269871e-02  1.2050630144629385e-02  4.1349912360160349e-02  7.2648778050429103e-02  5.8833168343379975e-02  1.7700018452436191e-02  1.0195088288546756e-02  -1.8323278585936759e-02  -3.4955264663103405e-02  -4.2969783757701586e-02  -5.5778812532159293e-02  -2.2939884935789610e-02  4.2612355812916549e-03  2.8339605998522453e-02  3.0398991897527022e-02  4.4585616712492872e-02  2.5865115185368395e-02  1.7700018452436191e-02  9.7842875222816563e-03  -3.1564026229603120e-01  -5.1358690115926497e-01  -6.0161671385612003e-01  -5.3283119564208103e-01  -3.1345077011760747e-01  -2.8480771883117304e-03  3.0590784246101710e-01  5.1554530736148751e-01  6.1019119444090131e-01  5.3799515225935057e-01  3.1180007601657111e-01  9.7842875222816563e-03  -2.0330528651435614e-02  -5.2012103504077833e-01  -8.3468384667478313e-01  -9.6476803355819951e-01  -8.2468298518892613e-01  -4.4655240197078772e-01  1.2608052531234402e-02  5.1991183952940601e-01  8.3390217414340106e-01  9.6000784896500957e-01  8.2113079164905534e-01  4.6157737965812651e-01  -2.0330528651435614e-02  -3.6500598654829637e-02  -6.0364145549956250e-01  -9.6267006660955035e-01  -1.0501339299009789e+00  -8.9797567280850898e-01  -5.2712957475295874e-01  3.4726177956000144e-02  6.0136279393710013e-01  9.6568517569725265e-01  1.0455689342958823e+00  9.0449810860015822e-01  5.2779577470144801e-01  -3.6500598654829637e-02  -5.1817643321187101e-02  -5.3596534904633431e-01  -8.2028685111375510e-01  -9.0387172717122921e-01  -7.8716761505201260e-01  -4.4989524363840028e-01  4.9420236708956920e-02  5.4005354163835428e-01  8.2762150113639832e-01  8.9490124005325433e-01  7.7997492656883083e-01  4.4564250869846572e-01  -5.1817643321187101e-02  -3.4502042975217542e-02  -3.1233337396302224e-01  -4.6915556045367068e-01  -5.2186673641113435e-01  -4.3817749702552772e-01  -2.0488095221029498e-01  5.4810510502840241e-02  3.0519184597867893e-01  4.4618615599117867e-01  5.2443768912929889e-01  4.5161400074308405e-01  2.1081122133261382e-01  -3.4502042975217542e-02  -2.7806569292944491e-02  4.1212785406002375e-04  2.4360788324288847e-02  3.5761124931871627e-02  4.9881649160474606e-02  3.7366072915400783e-02  2.5806228643974603e-02  5.6131838922569028e-03  -2.2646840461027939e-02  -3.5703622315690457e-02  -4.3582058487463674e-02  -5.5957363244896231e-02  -2.7806569292944491e-02  -5.7952997330852482e-03  3.0354103889911671e-01  5.1144685845305782e-01  6.1276756302012536e-01  5.4002178897825615e-01  3.1656322979184670e-01  6.2450396633232461e-03  -3.0955630932679445e-01  -5.1547731413030329e-01  -5.9185363812500058e-01  -5.3718591696005247e-01  -3.0684684513906030e-01  -5.7952997330852482e-03  2.0834383372975968e-02  5.0470365066982370e-01  8.3650976431838897e-01  9.5873188291131939e-01  8.1654955811304675e-01  4.6015600443234828e-01  -2.6373359565289901e-02  -5.2120536064087641e-01  -8.3313814245869222e-01  -9.5948895261517686e-01  -8.2132638262210433e-01  -4.4380210315407448e-01  2.0834383372975968e-02  3.7307560545683099e-02  6.0019573091908351e-01  9.6258210993472293e-01  1.0542634741141512e+00  9.0029170522500146e-01  5.2398342437796641e-01  -4.4295745693844840e-02  -6.0930818929966335e-01  -9.5810114456747819e-01  -1.0501719262235880e+00  -8.9470048874080021e-01  -5.3098370551209229e-01  3.7307560545683099e-02  4.3032682086049615e-02  5.3990931539327069e-01  8.2488747545634222e-01  8.9772768358499822e-01  7.9292220466274177e-01  4.3835371142613405e-01  -5.2016530441885207e-02  -5.3316886631469484e-01  -8.2068816625948637e-01  -9.0147103219687930e-01  -7.8817244874154313e-01  -4.5270832507744219e-01  4.3032682086049615e-02  6.0937824455225754e-02  2.9816617895425440e-01  4.4698969226768798e-01  5.2745548614972615e-01  4.5281396300126842e-01  2.1126118255664636e-01  -3.0445487704439073e-02  -3.0983684121595606e-01  -4.6546564079955421e-01  -5.2407900821975439e-01  -4.3885874444254619e-01  -2.1609663802121146e-01  6.0937824455225754e-02  1.7700018452436191e-02  1.0195088288546756e-02  -1.8323278585936759e-02  -3.4955264663103405e-02  -4.2969783757701586e-02  -5.5778812532159293e-02  -2.2939884935789610e-02  4.2612355812916549e-03  2.8339605998522453e-02  3.0398991897527022e-02  4.4585616712492872e-02  2.5865115185368395e-02  1.7700018452436191e-02  5.5609444955935011e-03  -1.7366229225843830e-02  -3.1610385591733792e-02  -3.6587175966036188e-02  -3.3338207861623219e-02  -1.9173858183850624e-02  -7.3444068355751882e-05  9.7923744088377028e-03  3.1178495578741243e-02  4.8064378051657072e-02  3.0064468043293876e-02  2.1339112966444342e-02  5.5609444955935011e-03  -1.6897629643208876e-02  -4.6770817175950455e-02  -5.8117978784057646e-02  -5.0293498495238599e-02  -3.0417584959027712e-02  -2.5250042472409651e-03  2.1933463847380368e-02  4.9608051799007138e-02  6.5554978678683914e-02  3.9534310882085796e-02  1.5005495172866838e-02  7.8852634155704530e-03  -1.6897629643208876e-02  -3.7401940336729549e-02  -6.1236702079889252e-02  -6.0511879110269694e-02  -4.1067227734571977e-02  -6.0616780380585338e-04  2.1308199878085056e-02  3.7184735061647538e-02  4.0486941967108454e-02  6.3306893472254350e-02  4.2763681236773383e-02  -1.0237610845804978e-03  -1.0076539194716730e-02  -3.7401940336729549e-02  -4.3789089279163564e-02  -4.5737031982800429e-02  -3.8742767901432669e-02  -5.1333088020993622e-03  3.9925322811618716e-02  4.8366459386845209e-02  2.8524183609185173e-02  4.2522313525770170e-02  4.1432832926192632e-02  2.2926696033237367e-03  -3.6002615696155434e-02  -4.0147479158066018e-02  -4.3789089279163564e-02  -3.2754082053066777e-02  -9.5718597133747363e-03  -3.6158337065080788e-03  3.7332043431810562e-02  7.3466345322601864e-02  5.0787032406496076e-02  3.6914159131803126e-02  2.9696915720244906e-02  -2.1735787297409836e-03  -3.4348567862875573e-02  -6.3681746411308068e-02  -6.1282653668718511e-02  -3.2754082053066777e-02  -2.3865559652637626e-02  -2.6843750080947394e-03  1.4915352844690680e-02  4.4411006296922961e-02  6.3535203498866627e-02  4.5568100668318318e-02  2.3428859703117706e-02  4.8763864059337995e-03  -2.8275911122279958e-02  -4.4723083452202758e-02  -5.7646096815748719e-02  -4.5711528025381733e-02  -2.3865559652637626e-02  1.5222099306235941e-03  2.2538759945537095e-02  3.5213644170765515e-02  4.1901599418114957e-02  3.7332995369814825e-02  1.6689669145124042e-02  4.3104310293769236e-03  -1.4925814018773501e-02  -3.4068600526344542e-02  -3.0062583073761438e-02  -2.9514012824973755e-02  -3.0545865352274874e-02  1.5222099306235941e-03  1.7891048576591347e-02  4.3271647603793824e-02  5.9703606277037080e-02  4.7420164569680706e-02  1.5957109584161765e-02  2.4738689438401390e-03  -1.2809181465475234e-02  -4.4720759316602944e-02  -5.1632799342888579e-02  -3.5592390487071135e-02  -3.1580794470589271e-02  3.1856776297307080e-04  1.7891048576591347e-02  2.7144856982968063e-02  5.1444851493960934e-02  6.2923241621407222e-02  3.4127063096992843e-02  -7.1195092581441306e-03  -1.5900102424738938e-02  -4.0442572056182395e-02  -6.4798006822468043e-02  -5.8506475395594566e-02  -4.0657974496449166e-02  3.2011483218570462e-03  2.7961909109231672e-02  2.7144856982968063e-02  2.4881842273065270e-02  4.4673092055906027e-02  3.9526083011712496e-02  -2.0762544394798683e-03  -3.8913619514384032e-02  -5.2036023854906223e-02  -4.1158856373173583e-02  -4.3734947560446255e-02  -3.4401647276082192e-02  -4.1823717666355023e-04  4.8045825853665278e-02  4.3385347847021208e-02  2.4881842273065270e-02  3.7194036868621376e-02  3.4256874865864109e-02  3.6879334027693084e-03  -3.6592282093894014e-02  -6.1857845597378711e-02  -6.3101894574069839e-02  -4.6366167635050429e-02  -9.9313869434408796e-03  -1.9988874455067799e-03  3.5640355421008206e-02  5.8302772900402131e-02  4.9051603938021271e-02  3.7194036868621376e-02  2.2751822762607739e-02  -2.9356875783454338e-03  -2.5762670395126704e-02  -3.9719677567209302e-02  -5.1854493969110405e-02  -4.7349151574813862e-02  -1.5720930397693927e-02  -1.3412702961784314e-04  2.0608363514150862e-02  3.2801616602364365e-02  6.4429770053401461e-02  4.2777293078684983e-02  2.2751822762607739e-02  5.5609444955935011e-03  -1.7366229225843830e-02  -3.1610385591733792e-02  -3.6587175966036188e-02  -3.3338207861623219e-02  -1.9173858183850624e-02  -7.3444068355751882e-05  9.7923744088377028e-03  3.1178495578741243e-02  4.8064378051657072e-02  3.0064468043293876e-02  2.1339112966444342e-02  5.5609444955935011e-03  -2.4184790541445633e-02  -5.1635202873457041e-02  -5.0322215357434849e-02  -3.5661066403232536e-02  -2.8405475596431098e-02  7.0259449690790099e-03  1.7656908887947444e-02  4.3158625979538984e-02  5.4883872745516406e-02  3.8568579691714733e-02  2.2175015837927508e-02  6.3948105023185356e-03  -2.4184790541445633e-02  -3.4724071535139858e-02  2.1033897421625725e-01  4.5612046414555651e-01  5.2623143445690368e-01  4.4937541292173266e-01  3.0014203029137410e-01  5.8166031403409847e-02  -2.1608843439120878e-01  -4.4811342679813321e-01  -5.3511426909629334e-01  -4.6506983662834800e-01  -3.1123200433125103e-01  -3.4724071535139858e-02  -4.7149108231618393e-02  4.3567736356849185e-01  7.9280273791224065e-01  8.9881936021352171e-01  8.2414440339420458e-01  5.4019151399220999e-01  4.3282621797359380e-02  -4.5763842750522599e-01  -7.8744215346775348e-01  -9.0134784882268504e-01  -8.1595588765673754e-01  -5.3359263056434569e-01  -4.7149108231618393e-02  -3.7457962714360749e-02  5.2731487049171155e-01  8.9770037274921799e-01  1.0566629120614239e+00  9.6269435812304049e-01  5.9676383501518604e-01  2.3867751048331467e-02  -5.2981700198898662e-01  -8.9231724992799244e-01  -1.0485303770908150e+00  -9.5929776421136193e-01  -6.0089790371626961e-01  -3.7457962714360749e-02  -1.4879464601894918e-02  4.6217129777532118e-01  8.2339039011748527e-01  9.6723195388445171e-01  8.2812663195723979e-01  5.0518165611213461e-01  1.9564696803450448e-02  -4.4790460501056334e-01  -8.2937805036768764e-01  -9.6465865095530945e-01  -8.3279210137866977e-01  -5.1617780286429915e-01  -1.4879464601894918e-02  1.3548368523878512e-03  3.1202423398705809e-01  5.3453608093716587e-01  6.0071831057215541e-01  5.1435651518725667e-01  3.0387533382824322e-01  2.4767869971750625e-03  -3.0459850256462767e-01  -5.4682064661426522e-01  -6.0137617213979944e-01  -5.0799487888043526e-01  -3.1545590567289200e-01  1.3548368523878512e-03  2.3022591234141302e-02  4.2418320200658784e-02  4.5478642374500153e-02  3.4589131376108161e-02  2.9537383716377198e-02  4.6743632534570730e-04  -1.6720992708914056e-02  -5.2390375701035774e-02  -3.0936360020237322e-02  -2.0379120343906848e-02  -1.2375129580839247e-02  3.1364980915836487e-04  2.3022591234141302e-02  5.6554323947558806e-02  -2.1379224881604988e-01  -4.4520691189773198e-01  -5.2684047757103991e-01  -4.6732248380899033e-01  -3.1324356522373070e-01  -3.9928772917632284e-02  2.2236921714459171e-01  4.5875976446620226e-01  5.3201187818101625e-01  4.4600809039519801e-01  2.9188493378135111e-01  5.6554323947558806e-02  4.1074910095925413e-02  -4.5143915712612415e-01  -7.8679447091284949e-01  -9.0084196910852998e-01  -8.2390314520107111e-01  -5.3573092470985584e-01  -5.2548680745296443e-02  4.5182760951150186e-01  7.9092500102483032e-01  9.0538499500644298e-01  8.2124285565453825e-01  5.4144940950838361e-01  4.1074910095925413e-02  2.5829190350140262e-02  -5.2438683508032236e-01  -9.0586552744078974e-01  -1.0478904344897759e+00  -9.6592197930404999e-01  -6.1112419620014125e-01  -3.5554744281535877e-02  5.3001962628768073e-01  9.0027889823042384e-01  1.0589339502926065e+00  9.7365643858013107e-01  6.0220896942541879e-01  2.5829190350140262e-02  1.1221856056951368e-02  -4.5078716194507124e-01  -8.1980580154489413e-01  -9.5810273846726168e-01  -8.3457183518170019e-01  -5.2222971193567336e-01  -2.47263843672235