<?xml version="1.0"?>
<VTKFile type="UnstructuredGrid"  version="0.1"  >
<UnstructuredGrid>
<Piece  NumberOfPoints="2197" NumberOfCells="10368">
<Points>
<DataArray  type="Float64"  NumberOfComponents="3"  format="ascii">-3.141592653589793 -3.141592653589793 -3.141592653589793  -2.617993877991494 -3.141592653589793 -3.141592653589793  -2.094395102393196 -3.141592653589793 -3.141592653589793  -1.570796326794897 -3.141592653589793 -3.141592653589793  -1.047197551196598 -3.141592653589793 -3.141592653589793  -0.5235987755982987 -3.141592653589793 -3.141592653589793  0 -3.141592653589793 -3.141592653589793  0.5235987755982987 -3.141592653589793 -3.141592653589793  1.047197551196597 -3.141592653589793 -3.141592653589793  1.570796326794897 -3.141592653589793 -3.141592653589793  2.094395102393196 -3.141592653589793 -3.141592653589793  2.617993877991494 -3.141592653589793 -3.141592653589793  3.141592653589793 -3.141592653589793 -3.141592653589793  -3.141592653589793 -2.617993877991494 -3.141592653589793  -2.617993877991494 -2.617993877991494 -3.141592653589793  -2.094395102393196 -2.617993877991494 -3.141592653589793  -1.570796326794897 -2.617993877991494 -3.141592653589793  -1.047197551196598 -2.617993877991494 -3.141592653589793  -0.5235987755982987 -2.617993877991494 -3.141592653589793  0 -2.617993877991494 -3.141592653589793  0.5235987755982987 -2.617993877991494 -3.141592653589793  1.047197551196597 -2.617993877991494 -3.141592653589793  1.570796326794897 -2.617993877991494 -3.141592653589793  2.094395102393196 -2.617993877991494 -3.141592653589793  2.617993877991494 -2.617993877991494 -3.141592653589793  3.141592653589793 -2.617993877991494 -3.141592653589793  -3.141592653589793 -2.094395102393196 -3.141592653589793  -2.617993877991494 -2.094395102393196 -3.141592653589793  -2.094395102393196 -2.094395102393196 -3.141592653589793  -1.570796326794897 -2.094395102393196 -3.141592653589793  -1.047197551196598 -2.094395102393196 -3.141592653589793  -0.5235987755982987 -2.094395102393196 -3.141592653589793  0 -2.094395102393196 -3.141592653589793  0.5235987755982987 -2.094395102393196 -3.141592653589793  1.047197551196597 -2.094395102393196 -3.141592653589793  1.570796326794897 -2.094395102393196 -3.141592653589793  2.094395102393196 -2.094395102393196 -3.141592653589793  2.617993877991494 -2.094395102393196 -3.141592653589793  3.141592653589793 -2.094395102393196 -3.141592653589793  -3.141592653589793 -1.570796326794897 -3.141592653589793  -2.617993877991494 -1.570796326794897 -3.141592653589793  -2.094395102393196 -1.570796326794897 -3.141592653589793  -1.570796326794897 -1.570796326794897 -3.141592653589793  -1.047197551196598 -1.570796326794897 -3.141592653589793  -0.5235987755982987 -1.570796326794897 -3.141592653589793  0 -1.570796326794897 -3.141592653589793  0.5235987755982987 -1.570796326794897 -3.141592653589793  1.047197551196597 -1.570796326794897 -3.141592653589793  1.570796326794897 -1.570796326794897 -3.141592653589793  2.094395102393196 -1.570796326794897 -3.141592653589793  2.617993877991494 -1.570796326794897 -3.141592653589793  3.141592653589793 -1.570796326794897 -3.141592653589793  -3.141592653589793 -1.047197551196598 -3.141592653589793  -2.617993877991494 -1.047197551196598 -3.141592653589793  -2.094395102393196 -1.047197551196598 -3.141592653589793  -1.570796326794897 -1.047197551196598 -3.141592653589793  -1.047197551196598 -1.047197551196598 -3.141592653589793  -0.5235987755982987 -1.047197551196598 -3.141592653589793  0 -1.047197551196598 -3.141592653589793  0.5235987755982987 -1.047197551196598 -3.141592653589793  1.047197551196597 -1.047197551196598 -3.141592653589793  1.570796326794897 -1.047197551196598 -3.141592653589793  2.094395102393196 -1.047197551196598 -3.141592653589793  2.617993877991494 -1.047197551196598 -3.141592653589793  3.141592653589793 -1.047197551196598 -3.141592653589793  -3.141592653589793 -0.5235987755982987 -3.141592653589793  -2.617993877991494 -0.5235987755982987 -3.141592653589793  -2.094395102393196 -0.5235987755982987 -3.141592653589793  -1.570796326794897 -0.5235987755982987 -3.141592653589793  -1.047197551196598 -0.5235987755982987 -3.141592653589793  -0.5235987755982987 -0.5235987755982987 -3.141592653589793  0 -0.5235987755982987 -3.141592653589793  0.5235987755982987 -0.5235987755982987 -3.141592653589793  1.047197551196597 -0.5235987755982987 -3.141592653589793  1.570796326794897 -0.5235987755982987 -3.141592653589793  2.094395102393196 -0.5235987755982987 -3.141592653589793  2.617993877991494 -0.5235987755982987 -3.141592653589793  3.141592653589793 -0.5235987755982987 -3.141592653589793  -3.141592653589793 0 -3.141592653589793  -2.617993877991494 0 -3.141592653589793  -2.094395102393196 0 -3.141592653589793  -1.570796326794897 0 -3.141592653589793  -1.047197551196598 0 -3.141592653589793  -0.5235987755982987 0 -3.141592653589793  0 0 -3.141592653589793  0.5235987755982987 0 -3.141592653589793  1.047197551196597 0 -3.141592653589793  1.570796326794897 0 -3.141592653589793  2.094395102393196 0 -3.141592653589793  2.617993877991494 0 -3.141592653589793  3.141592653589793 0 -3.141592653589793  -3.141592653589793 0.5235987755982987 -3.141592653589793  -2.617993877991494 0.5235987755982987 -3.141592653589793  -2.094395102393196 0.5235987755982987 -3.141592653589793  -1.570796326794897 0.5235987755982987 -3.141592653589793  -1.047197551196598 0.5235987755982987 -3.141592653589793  -0.5235987755982987 0.5235987755982987 -3.141592653589793  0 0.5235987755982987 -3.141592653589793  0.5235987755982987 0.5235987755982987 -3.141592653589793  1.047197551196597 0.5235987755982987 -3.141592653589793  1.570796326794897 0.5235987755982987 -3.141592653589793  2.094395102393196 0.5235987755982987 -3.141592653589793  2.617993877991494 0.5235987755982987 -3.141592653589793  3.141592653589793 0.5235987755982987 -3.141592653589793  -3.141592653589793 1.047197551196597 -3.141592653589793  -2.617993877991494 1.047197551196597 -3.141592653589793  -2.094395102393196 1.047197551196597 -3.141592653589793  -1.570796326794897 1.047197551196597 -3.141592653589793  -1.047197551196598 1.047197551196597 -3.141592653589793  -0.5235987755982987 1.047197551196597 -3.141592653589793  0 1.047197551196597 -3.141592653589793  0.5235987755982987 1.047197551196597 -3.141592653589793  1.047197551196597 1.047197551196597 -3.141592653589793  1.570796326794897 1.047197551196597 -3.141592653589793  2.094395102393196 1.047197551196597 -3.141592653589793  2.617993877991494 1.047197551196597 -3.141592653589793  3.141592653589793 1.047197551196597 -3.141592653589793  -3.141592653589793 1.570796326794897 -3.141592653589793  -2.617993877991494 1.570796326794897 -3.141592653589793  -2.094395102393196 1.570796326794897 -3.141592653589793  -1.570796326794897 1.570796326794897 -3.141592653589793  -1.047197551196598 1.570796326794897 -3.141592653589793  -0.5235987755982987 1.570796326794897 -3.141592653589793  0 1.570796326794897 -3.141592653589793  0.5235987755982987 1.570796326794897 -3.141592653589793  1.047197551196597 1.570796326794897 -3.141592653589793  1.570796326794897 1.570796326794897 -3.141592653589793  2.094395102393196 1.570796326794897 -3.141592653589793  2.617993877991494 1.570796326794897 -3.141592653589793  3.141592653589793 1.570796326794897 -3.141592653589793  -3.141592653589793 2.094395102393196 -3.141592653589793  -2.617993877991494 2.094395102393196 -3.141592653589793  -2.094395102393196 2.094395102393196 -3.141592653589793  -1.570796326794897 2.094395102393196 -3.141592653589793  -1.047197551196598 2.094395102393196 -3.141592653589793  -0.5235987755982987 2.094395102393196 -3.141592653589793  0 2.094395102393196 -3.141592653589793  0.5235987755982987 2.094395102393196 -3.141592653589793  1.047197551196597 2.094395102393196 -3.141592653589793  1.570796326794897 2.094395102393196 -3.141592653589793  2.094395102393196 2.094395102393196 -3.141592653589793  2.617993877991494 2.094395102393196 -3.141592653589793  3.141592653589793 2.094395102393196 -3.141592653589793  -3.141592653589793 2.617993877991494 -3.141592653589793  -2.617993877991494 2.617993877991494 -3.141592653589793  -2.094395102393196 2.617993877991494 -3.141592653589793  -1.570796326794897 2.617993877991494 -3.141592653589793  -1.047197551196598 2.617993877991494 -3.141592653589793  -0.5235987755982987 2.617993877991494 -3.141592653589793  0 2.617993877991494 -3.141592653589793  0.5235987755982987 2.617993877991494 -3.141592653589793  1.047197551196597 2.617993877991494 -3.141592653589793  1.570796326794897 2.617993877991494 -3.141592653589793  2.094395102393196 2.617993877991494 -3.141592653589793  2.617993877991494 2.617993877991494 -3.141592653589793  3.141592653589793 2.617993877991494 -3.141592653589793  -3.141592653589793 3.141592653589793 -3.141592653589793  -2.617993877991494 3.141592653589793 -3.141592653589793  -2.094395102393196 3.141592653589793 -3.141592653589793  -1.570796326794897 3.141592653589793 -3.141592653589793  -1.047197551196598 3.141592653589793 -3.141592653589793  -0.5235987755982987 3.141592653589793 -3.141592653589793  0 3.141592653589793 -3.141592653589793  0.5235987755982987 3.141592653589793 -3.141592653589793  1.047197551196597 3.141592653589793 -3.141592653589793  1.570796326794897 3.141592653589793 -3.141592653589793  2.094395102393196 3.141592653589793 -3.141592653589793  2.617993877991494 3.141592653589793 -3.141592653589793  3.141592653589793 3.141592653589793 -3.141592653589793  -3.141592653589793 -3.141592653589793 -2.617993877991494  -2.617993877991494 -3.141592653589793 -2.617993877991494  -2.094395102393196 -3.141592653589793 -2.617993877991494  -1.570796326794897 -3.141592653589793 -2.617993877991494  -1.047197551196598 -3.141592653589793 -2.617993877991494  -0.5235987755982987 -3.141592653589793 -2.617993877991494  0 -3.141592653589793 -2.617993877991494  0.5235987755982987 -3.141592653589793 -2.617993877991494  1.047197551196597 -3.141592653589793 -2.617993877991494  1.570796326794897 
[...]
<PointData  Scalars="f_212248"> 
<DataArray  type="Float64"  Name="f_212248"  format="ascii">6.7379046277229432e-02  6.3562327931792950e-02  -1.0864293472436528e-02  -3.2302151678596596e-03  2.6914199925443176e-03  -4.0660729740902367e-02  -7.3560341927412287e-02  -3.5973449390609591e-02  -1.2864120859393485e-02  -4.5831591032674110e-03  -2.1551620051900228e-02  5.4459215497040074e-02  6.7379046277229432e-02  4.9434409976794366e-02  -6.6101643177646585e-01  -1.0074995167368483e+00  -1.1041594830869690e+00  -1.0419951597194759e+00  -7.6905451448083939e-01  -5.7927788352570210e-02  6.5195237952304785e-01  1.1028435150324947e+00  1.0898343759058251e+00  9.6711733005103984e-01  7.5677830645133137e-01  4.9434409976794366e-02  5.2268139802765217e-03  -1.1081355034964369e+00  -1.4352110904589130e+00  -1.4636831181676648e+00  -1.6132195974981736e+00  -9.6374124670859729e-01  1.9236248277577930e-02  9.9592830736044236e-01  1.4427333400961952e+00  1.4973404567616713e+00  1.6206793631001668e+00  1.0377753535948331e+00  5.2268139802765217e-03  -2.9630235426073184e-03  -1.0782741539068366e+00  -1.5098080992447538e+00  -1.8621619348826395e+00  -1.4968720473851049e+00  -1.0854445150694254e+00  -1.1632701520201800e-03  1.1099504397066198e+00  1.4619763546098681e+00  1.8487013467546825e+00  1.4577241239496148e+00  1.1082683042675587e+00  -2.9630235426073184e-03  1.8372096240449744e-02  -9.6512301412044499e-01  -1.6219610184449282e+00  -1.4606875630662999e+00  -1.4379067390801432e+00  -1.1084451155271700e+00  5.6965141521506312e-03  1.0472370782049512e+00  1.6222690674624249e+00  1.4875660428134800e+00  1.4361832137270434e+00  9.9396914514443768e-01  1.8372096240449744e-02  -5.4616518347029117e-02  -7.7305032289506226e-01  -1.0352749468468940e+00  -1.1100883089461295e+00  -9.9361317001160776e-01  -6.5014468468678333e-01  4.7120904936234304e-02  7.6626147909906783e-01  9.6541051272335054e-01  1.0820883719195322e+00  1.1005918129149761e+00  6.5270610845053867e-01  -5.4616518347029117e-02  -5.4674480527400239e-02  -4.1956791348097891e-02  -6.0575391433274782e-03  3.5548052998436060e-03  -1.1857077935916635e-02  5.5692213669899349e-02  5.8583305304527412e-02  5.6264731759864815e-02  -1.6227093990818970e-02  -1.1944560960509825e-03  -6.8823398125442484e-03  -5.1162480982524162e-02  -5.4674480527400239e-02  -6.3392955367841897e-02  6.5314068846014950e-01  1.1024881752447835e+00  1.0894620445426517e+00  9.7188534835499452e-01  7.6632467383273817e-01  3.9734419905774414e-02  -6.5090063010107346e-01  -1.0006666538615745e+00  -1.1031741392150574e+00  -1.0384116498200195e+00  -7.5921164360400206e-01  -6.3392955367841897e-02  1.5706363595621619e-02  1.0039491523776749e+00  1.4393058683035564e+00  1.4953464605260727e+00  1.6210613281854718e+00  1.0380062473974849e+00  4.5816883384502006e-03  -1.1092240416446426e+00  -1.4376384193692615e+00  -1.4661124584911864e+00  -1.6156058390633257e+00  -9.6235107665295871e-01  1.5706363595621619e-02  -5.5498270747235739e-03  1.1151374652000072e+00  1.4681801104605376e+00  1.8605370242893917e+00  1.4629839041170158e+00  1.1031002665077900e+00  -3.6874103687518805e-03  -1.0872604877930057e+00  -1.4993963014049767e+00  -1.8565842196069291e+00  -1.4946713899649122e+00  -1.0891219240402665e+00  -5.5498270747235739e-03  9.3271347429048097e-03  1.0409249152087647e+00  1.6216499360814949e+00  1.4896470324745985e+00  1.4418955935094058e+00  9.9109275937982189e-01  1.3788295383189894e-02  -9.7117879368566140e-01  -1.6006104798328651e+00  -1.4655843219825411e+00  -1.4355286604273945e+00  -1.0982731818558589e+00  9.3271347429048097e-03  3.6656885388232315e-02  7.7038205190566911e-01  9.6517650940623645e-01  1.0861693937823367e+00  1.1059041974316886e+00  6.6399862389918274e-01  -6.6712789388380850e-02  -7.6044265762469465e-01  -1.0377234437843237e+00  -1.1059797811796854e+00  -9.9709921370684929e-01  -6.5006750676829461e-01  3.6656885388232315e-02  6.7379046277229432e-02  6.3562327931792950e-02  -1.0864293472436528e-02  -3.2302151678596596e-03  2.6914199925443176e-03  -4.0660729740902367e-02  -7.3560341927412287e-02  -3.5973449390609591e-02  -1.2864120859393485e-02  -4.5831591032674110e-03  -2.1551620051900228e-02  5.4459215497040074e-02  6.7379046277229432e-02  5.9271921746414998e-02  1.7921608814721175e-02  -3.2636874048187700e-02  -1.1811917040260952e-02  -4.7067475281677977e-02  -6.1753655617797484e-02  -4.0424581957273553e-02  -1.4415703356580737e-02  2.2524868811101672e-02  5.9795340292566239e-03  4.3360307626134881e-02  7.9865632737686126e-02  5.9271921746414998e-02  1.2239689953421199e-03  -5.9155275874671998e-01  -8.5995003168620066e-01  -9.5707933045221394e-01  -9.6365468633234341e-01  -6.1030160093085284e-01  -3.0458574390926797e-02  5.9043530213202866e-01  8.8905102987882645e-01  9.5029366349131894e-01  8.9306687656294026e-01  6.2405195336096231e-01  1.2239689953421199e-03  -2.5632192465000744e-02  -8.9116323243606321e-01  -1.2582738333879349e+00  -1.4457240759834131e+00  -1.4112737401348616e+00  -7.9686278931427801e-01  3.5457576504914580e-02  8.5708026947591065e-01  1.2517209343705489e+00  1.4465015429866150e+00  1.4026099686370368e+00  8.6068128790985388e-01  -2.5632192465000744e-02  -6.3069247887670285e-03  -9.5090295282803539e-01  -1.4464826567744951e+00  -1.6544818660321237e+00  -1.4088873247920830e+00  -9.3727043476555694e-01  1.8504171181272688e-02  9.4705049226722771e-01  1.4465443485319982e+00  1.6543550768697226e+00  1.3563408398910641e+00  9.6290269550647056e-01  -6.3069247887670285e-03  -4.2567991782412030e-02  -9.0596775969926324e-01  -1.4007501308707255e+00  -1.3523631057919876e+00  -1.3411951634246821e+00  -9.5781031321155019e-01  5.3155808580352903e-02  9.5778756022813383e-01  1.4009433475831417e+00  1.3962453564121906e+00  1.3298206171853775e+00  8.5492061412237452e-01  -4.2567991782412030e-02  -7.6823845216519540e-02  -6.2865209182009407e-01  -8.5591719971195712e-01  -9.5925984637414896e-01  -8.5348496444745214e-01  -4.8609626886272711e-01  6.2644723810455105e-02  6.1376783481330388e-01  8.0383168953736317e-01  9.4130467721566458e-01  9.5897332301475380e-01  4.8880018742203024e-01  -7.6823845216519540e-02  -5.4203061309728837e-02  -6.7286957551245096e-03  1.9733478291084135e-02  6.9289389946516457e-03  4.3913843249072528e-02  7.4897646132020823e-02  4.4665659848735280e-02  2.5512316946028225e-02  -3.1579887314417743e-02  -1.7754968891031918e-02  -5.2270758740833173e-02  -6.0066976689951146e-02  -5.4203061309728837e-02  -2.1179458544956203e-02  5.8263534865401778e-01  8.8609867984998036e-01  9.5255877398536881e-01  9.0446320775667488e-01  6.3161162185358977e-01  1.3714187730905750e-02  -5.9272036813459761e-01  -8.5316060263838045e-01  -9.4756768686798509e-01  -9.5866598408879389e-01  -6.1628351870171394e-01  -2.1179458544956203e-02  3.4342714818172228e-02  8.6156817340834191e-01  1.2516926034878222e+00  1.4497957349552171e+00  1.4020857608999961e+00  8.5744047994026451e-01  -3.0386818679987791e-02  -8.8531335541693945e-01  -1.2559066546823865e+00  -1.4465818251367017e+00  -1.3954572958969067e+00  -7.9796956057946056e-01  3.4342714818172228e-02  1.4367271790546058e-02  9.5536289708658018e-01  1.4453578752908021e+00  1.6627878926213513e+00  1.3474106329886462e+00  9.6576202635615016e-01  -1.3587856467564665e-02  -9.5070832817915973e-01  -1.4421799207877561e+00  -1.6571025904160057e+00  -1.4079241768686745e+00  -9.3694972888482186e-01  1.4367271790546058e-02  5.8741984147189383e-02  9.5905937387868379e-01  1.4050233371676124e+00  1.4011002474862992e+00  1.3385726510481086e+00  8.5677466427366911e-01  -4.8918473969749472e-02  -8.9923974472657386e-01  -1.4005463215501879e+00  -1.3608937706151643e+00  -1.3397214260833594e+00  -9.6593622169748372e-01  5.8741984147189383e-02  6.8499795527929494e-02  6.2557066064541134e-01  7.9403515361931243e-01  9.3803566360367097e-01  9.6046526340262572e-01  4.9260111529011863e-01  -6.7886435298540451e-02  -6.3594728210716434e-01  -8.4575440317545703e-01  -9.5013521812060397e-01  -8.5600440410883749e-01  -4.9368640319052870e-01  6.8499795527929494e-02  5.9271921746414998e-02  1.7921608814721175e-02  -3.2636874048187700e-02  -1.1811917040260952e-02  -4.7067475281677977e-02  -6.1753655617797484e-02  -4.0424581957273553e-02  -1.4415703356580737e-02  2.2524868811101672e-02  5.9795340292566239e-03  4.3360307626134881e-02  7.9865632737686126e-02  5.9271921746414998e-02  1.5486576468246707e-02  1.4989720014533579e-02  -1.9819688440703816e-02  -3.4281411837226765e-02  -4.2987392034896967e-02  -5.4029120159323860e-02  -2.1497479176465752e-02  3.2610691498619936e-03  3.0385055405751774e-02  2.5755411681508657e-02  4.4895034905961501e-02  1.8957393744366575e-02  1.5486576468246707e-02  1.2616551593330312e-02  -3.2636237024885667e-01  -5.2050147416467141e-01  -6.0958287183941728e-01  -5.5516424882455140e-01  -3.1661737220058578e-01  -6.8584082494603810e-03  3.1587719200548281e-01  5.2358862453743926e-01  6.2644360661869547e-01  5.5348908485791448e-01  3.2128205448433483e-01  1.2616551593330312e-02  -2.0876930189533238e-02  -5.2896377791567006e-01  -8.2574871530811933e-01  -9.7115489117713505e-01  -8.3393309547005379e-01  -4.4098685242540120e-01  1.2950958490903493e-02  5.2585095418784233e-01  8.2641842537556953e-01  9.6744840200451110e-01  8.2341178642897783e-01  4.6492322641853140e-01  -2.0876930189533238e-02  -3.2250851969901927e-02  -6.1949051026744684e-01  -9.7065375289326106e-01  -1.0471101675898751e+00  -9.0149532399534082e-01  -5.3139047742505985e-01  3.4805028452452563e-02  6.1017125152324647e-01  9.7099898829935227e-01  1.0423772554203123e+00  9.0896535195080241e-01  5.3990162047182055e-01  -3.2250851969901927e-02  -5.3620965427283222e-02  -5.5029301368402428e-01  -8.2217772775482567e-01  -9.0807646993804270e-01  -8.0035581000100520e-01  -4.6895353125915068e-01  4.9826722437303975e-02  5.6307423250391120e-01  8.3790756177150949e-01  8.9750422262014162e-01  7.9142234019160662e-01  4.5578533172719043e-01  -5.3620965427283222e-02  -2.8768482615125646e-02  -3.2176700493299848e-01  -4.7315341663133736e-01  -5.3442837058834547e-01  -4.4615875420112833e-01  -1.9987345993834588e-01  5.3093785245738198e-02  3.0631089002274942e-01  4.4082119004778164e-01  5.2791141350147630e-01  4.7155834505752581e-01  2.0691071260869665e-01  -2.8768482615125646e-02  -2.7472348469780118e-02  -1.4448060278301556e-03  2.6290987608370561e-02  3.1008760415390239e-02  5.1896812500494709e-02  3.1434129836834523e-02  2.5414914936402935e-02  1.0426085529201134e-02  -2.4837358479693018e-02  -3.5550378492463640e-02  -4.2792421702593585e-02  -5.4831266866516307e-02  -2.7472348469780118e-02  -1.0070685661238900e-02  3.1254622941314031e-01  5.1882739595145955e-01  6.2983173273162907e-01  5.5499921221198800e-01  3.2698745467236323e-01  9.2043976785926469e-03  -3.2037892312645988e-01  -5.2086935511871535e-01  -5.9945273216194306e-01  -5.5967266539966920e-01  -3.0886885734679148e-01  -1.0070685661238900e-02  2.2213780156051889e-02  5.0943029035980436e-01  8.2870414255073843e-01  9.6615882125753794e-01  8.1854525026194258e-01  4.6342260878059127e-01  -2.9114914505241569e-02  -5.2984298947862629e-01  -8.2524895599967751e-01  -9.6369663576109843e-01  -8.3110915515525563e-01  -4.3764603135694857e-01  2.2213780156051889e-02  3.6843713661341725e-02  6.0991834038555803e-01  9.6763770417775596e-01  1.0523884072195140e+00  9.0327030547978626e-01  5.3602728688216150e-01  -4.0514837669256849e-02  -6.2561233936356608e-01  -9.6487412370964420e-01  -1.0476127866995124e+00  -8.9761198192694824e-01  -5.3570607505411016e-01  3.6843713661341725e-02  4.3271160028056532e-02  5.6220219828998641e-01  8.3555327194885676e-01  9.0140285631003625e-01  8.0582787460716832e-01  4.4676949569493768e-01  -5.3956183589210852e-02  -5.4839805511845008e-01  -8.2313930865897189e-01  -9.0505173962706331e-01  -8.0198050626135087e-01  -4.7251212549431981e-01  4.3271160028056532e-02  5.9870472389090067e-02  2.9952076768183344e-01  4.4019561346439512e-01  5.3113062829771585e-01  4.7426768567399752e-01  2.0697945240515886e-01  -2.4835791288874868e-02  -3.1840624270218182e-01  -4.6811070429439794e-01  -5.3754018898711975e-01  -4.4748021639315894e-01  -2.1217335366084317e-01  5.9870472389090067e-02  1.5486576468246707e-02  1.4989720014533579e-02  -1.9819688440703816e-02  -3.4281411837226765e-02  -4.2987392034896967e-02  -5.4029120159323860e-02  -2.1497479176465752e-02  3.2610691498619936e-03  3.0385055405751774e-02  2.5755411681508657e-02  4.4895034905961501e-02  1.8957393744366575e-02  1.5486576468246707e-02  6.2504798529283605e-03  -1.5623910509761751e-02  -2.5756946855200077e-02  -2.5396202320533200e-02  -2.7180711587089155e-02  -1.7218942274013105e-02  9.5165781987600841e-05  5.0939620887229175e-03  2.6339074637228881e-02  4.4030522050454338e-02  2.6038651809242464e-02  1.7987927727828708e-02  6.2504798529283605e-03  -1.3312533916559144e-02  -4.8657351042908484e-02  -5.7680162518310485e-02  -5.2458712832068544e-02  -3.5371322398778431e-02  -2.9478583375106946e-03  2.0888099960295566e-02  5.1726879075403270e-02  7.2405513848611269e-02  4.0488072930797744e-02  1.1018002194857003e-02  9.1056926408664158e-03  -1.3312533916559144e-02  -3.3534226200219806e-02  -6.7326994859565351e-02  -6.8693548548619976e-02  -4.8857705514947662e-02  -5.3833505358289607e-04  2.4775820296080751e-02  3.1777879357827117e-02  3.7141657609491820e-02  7.1235205154542736e-02  4.9671505975601098e-02  -7.9140663271476917e-04  -5.9869905012693205e-03  -3.3534226200219806e-02  -3.8854767124667948e-02  -4.7541530992393784e-02  -4.4736576107254115e-02  -6.1236999988316327e-03  4.7651413845404715e-02  4.9813845602146023e-02  1.6548179016792178e-02  4.3564651844805714e-02  4.9434644536666357e-02  3.0411816089307817e-03  -4.1737264646263289e-02  -4.0674341252749373e-02  -3.8854767124667948e-02  -2.8841284638117557e-02  -4.7065029696965839e-03  -3.8654795078178709e-03  4.3103607037191675e-02  8.3739161678839297e-02  4.9059240128978283e-02  3.1049581964132211e-02  3.5370318287749343e-02  -2.9177197335629513e-03  -4.1389758695638448e-02  -7.2269312755576631e-02  -6.7117466685511343e-02  -2.8841284638117557e-02  -2.0722058657443525e-02  -3.0392047309378886e-03  1.1050901301769622e-02  4.5656505550464931e-02  6.9524628928649121e-02  4.7172608656734456e-02  2.2521465180836114e-02  5.2178733876893837e-03  -3.3041878698477356e-02  -4.5896657920844068e-02  -5.7167090469653181e-02  -4.7264779786174542e-02  -2.0722058657443525e-02  1.3810968304620557e-03  1.9275273042814432e-02  3.1743039750772854e-02  3.6905559094739852e-02  3.3716159212253821e-02  1.3009884112259923e-02  5.0920629281719886e-03  -1.2250714606133818e-02  -2.8544868782969593e-02  -1.7367070876003112e-02  -2.3166696632627156e-02  -3.0517031049744757e-02  1.3810968304620557e-03  1.6350058146752999e-02  4.4495760731703610e-02  6.5906150834184066e-02  4.8267883631093945e-02  1.2664396140333723e-02  2.6729717483856348e-03  -8.7102978434631401e-03  -4.6416122217456411e-02  -4.9719651852072992e-02  -3.5356446745297733e-02  -3.7052788532285649e-02  -1.1706233898922548e-04  1.6350058146752999e-02  1.9692837821803436e-02  5.0869729833897252e-02  7.0732237013781521e-02  3.9685037446569801e-02  -8.0385294744557065e-03  -1.2471479365557406e-02  -3.6857504299109077e-02  -7.0552513979401002e-02  -6.5971508321713238e-02  -4.8476706586306269e-02  3.4810633410086076e-03  3.2765265492896226e-02  1.9692837821803436e-02  1.2440543521613372e-02  4.6024713655199154e-02  4.7229143619469616e-02  -2.5099601847242271e-03  -4.5290845988131087e-02  -5.4127470726677632e-02  -3.6855344971314083e-02  -4.4287878231309544e-02  -4.0102427760369590e-02  -9.1585353558383835e-04  5.7712478234373608e-02  4.3956040636281703e-02  1.2440543521613372e-02  3.1698078624031560e-02  3.9773001091458482e-02  4.4951788077704025e-03  -4.3933440362406082e-02  -6.9611455538674288e-02  -6.9280830695524917e-02  -4.4039874288617956e-02  -6.0042364849152144e-03  -2.1338759893965598e-03  4.0334157936462348e-02  6.5584899219716414e-02  4.7399203297585756e-02  3.1698078624031560e-02  2.1820222625735543e-02  -3.3117382549168405e-03  -3.0402671388044547e-02  -3.9926122659832482e-02  -5.0831867898510949e-02  -4.9505701122607722e-02  -1.1607131753544006e-02  -2.5844612958168535e-04  1.7722851134596523e-02  3.1740674125016792e-02  7.1260006139281254e-02  4.4282445546538880e-02  2.1820222625735543e-02  6.2504798529283605e-03  -1.5623910509761751e-02  -2.5756946855200077e-02  -2.5396202320533200e-02  -2.7180711587089155e-02  -1.7218942274013105e-02  9.5165781987600841e-05  5.0939620887229175e-03  2.6339074637228881e-02  4.4030522050454338e-02  2.6038651809242464e-02  1.7987927727828708e-02  6.2504798529283605e-03  -2.3135781663948335e-02  -5.0378859398564492e-02  -5.0465783462704299e-02  -3.5485916479555048e-02  -3.1408814951661576e-02  1.1432591823596667e-02  1.6397267896638382e-02  3.8705712674054107e-02  5.8172646726425706e-02  3.3006788087413676e-02  2.3733938638378357e-02  4.9669926191775703e-03  -2.3135781663948335e-02  -2.8895989880066839e-02  2.0606834606964575e-01  4.7735698978775820e-01  5.3058690508990003e-01  4.4397631963099848e-01  3.0131100565873392e-01  5.6220123171367181e-02  -2.1263263241029984e-01  -4.5870147199124750e-01  -5.4897915363232330e-01  -4.6925569960176611e-01  -3.2003894897836788e-01  -2.8895989880066839e-02  -4.8983389613733400e-02  4.4334205401650473e-01  8.0703999672186044e-01  9.0227087617058610e-01  8.3316911735458410e-01  5.6267131556683037e-01  4.4151844054783278e-02  -4.7813847590033148e-01  -8.0090679509901364e-01  -9.0524810193564298e-01  -8.1700755404093184e-01  -5.4719955723081071e-01  -4.8983389613733400e-02  -3.3100744842808442e-02  5.4139016232399328e-01  9.0112639232350000e-01  1.0544590003746781e+00  9.6753240059787760e-01  6.0632008703570461e-01  2.1487534499142761e-02  -5.3481431847828265e-01  -8.9482996700085526e-01  -1.0451236828273833e+00  -9.6723813462005415e-01  -6.1587296738483877e-01  -3.3100744842808442e-02  -1.4808601051871262e-02  4.6571213667440853e-01  8.2548476235665791e-01  9.7563189569565445e-01  8.1962883170737066e-01  5.0973944621564993e-01  1.9940199316289181e-02  -4.4163334823235451e-01  -8.4153122526438517e-01  -9.6939724066774802e-01  -8.2506777520220831e-01  -5.2431810614575980e-01  -1.4808601051871262e-02  4.2769167217723714e-03  3.2070145509951192e-01  5.4918246716739527e-01  6.1583495866270210e-01  5.2240789492107087e-01  3.1175940502335087e-01  8.9882903368839492e-04  -3.0641926203858405e-01  -5.7019864299330947e-01  -6.1098351050654465e-01  -5.1209170965637596e-01  -3.2676039521887690e-01  4.2769167217723714e-03  2.1222717828737237e-02  3.7829327632756087e-02  4.6431518509330416e-02  2.9459950147510072e-02  3.2436453199637054e-02  -1.8685463285294935e-03  -1.4341954401301356e-02  -5.2104459597090903e-02  -2.7092224959672999e-02  -1.8273094218501207e-02  -1.1375716724256706e-02  3.0126477888354499e-03  2.1222717828737237e-02  5.4957079653598646e-02  -2.0962216423877031e-01  -4.5400920211270768e-01  -5.4141822343981461e-01  -4.7049915019331379e-01  -3.2230724618250628e-01  -3.5771685163375012e-02  2.2235391184788225e-01  4.7943444247676320e-01  5.3918040130189127e-01  4.3908088878019769e-01  2.9192243753333452e-01  5.4957079653598646e-02  4.0762180636402377e-02  -4.7144510164340947e-01  -8.0040787061985263e-01  -9.0465925021826099e-01  -8.2713065034795707e-01  -5.5069244169779719e-01  -5.3515332027167552e-02  4.6170583004884203e-01  8.0541084002562668e-01  9.0911307008077025e-01  8.3082879950187916e-01  5.6377860213997444e-01  4.0762180636402377e-02  2.4672292531337348e-02  -5.2905092315358926e-01  -9.1067211513975399e-01  -1.0441516089132872e+00  -9.7529923862047119e-01  -6.2811799772262178e-01  -3.1095882081757495e-02  5.4377081634852387e-01  9.0307705511608150e-01  1.0583050939662455e+00  9.7931772348908397e-01  6.1161213951202753e-01  2.4672292531337348e-02  1.0559946776601055e-02  -4.4475201461979025e-01  -8.2888136965915915e-01  -9.6189119623617714e-01  -8.2535780421938632e-01  -5.3184001785903234e-01  -2.59409040374