<?xml version="1.0"?>
<VTKFile type="UnstructuredGrid"  version="0.1"  >
<UnstructuredGrid>
<Piece  NumberOfPoints="2197" NumberOfCells="10368">
<Points>
<DataArray  type="Float64"  NumberOfComponents="3"  format="ascii">-3.141592653589793 -3.141592653589793 -3.141592653589793  -2.617993877991494 -3.141592653589793 -3.141592653589793  -2.094395102393196 -3.141592653589793 -3.141592653589793  -1.570796326794897 -3.141592653589793 -3.141592653589793  -1.047197551196598 -3.141592653589793 -3.141592653589793  -0.5235987755982987 -3.141592653589793 -3.141592653589793  0 -3.141592653589793 -3.141592653589793  0.5235987755982987 -3.141592653589793 -3.141592653589793  1.047197551196597 -3.141592653589793 -3.141592653589793  1.570796326794897 -3.141592653589793 -3.141592653589793  2.094395102393196 -3.141592653589793 -3.141592653589793  2.617993877991494 -3.141592653589793 -3.141592653589793  3.141592653589793 -3.141592653589793 -3.141592653589793  -3.141592653589793 -2.617993877991494 -3.141592653589793  -2.617993877991494 -2.617993877991494 -3.141592653589793  -2.094395102393196 -2.617993877991494 -3.141592653589793  -1.570796326794897 -2.617993877991494 -3.141592653589793  -1.047197551196598 -2.617993877991494 -3.141592653589793  -0.5235987755982987 -2.617993877991494 -3.141592653589793  0 -2.617993877991494 -3.141592653589793  0.5235987755982987 -2.617993877991494 -3.141592653589793  1.047197551196597 -2.617993877991494 -3.141592653589793  1.570796326794897 -2.617993877991494 -3.141592653589793  2.094395102393196 -2.617993877991494 -3.141592653589793  2.617993877991494 -2.617993877991494 -3.141592653589793  3.141592653589793 -2.617993877991494 -3.141592653589793  -3.141592653589793 -2.094395102393196 -3.141592653589793  -2.617993877991494 -2.094395102393196 -3.141592653589793  -2.094395102393196 -2.094395102393196 -3.141592653589793  -1.570796326794897 -2.094395102393196 -3.141592653589793  -1.047197551196598 -2.094395102393196 -3.141592653589793  -0.5235987755982987 -2.094395102393196 -3.141592653589793  0 -2.094395102393196 -3.141592653589793  0.5235987755982987 -2.094395102393196 -3.141592653589793  1.047197551196597 -2.094395102393196 -3.141592653589793  1.570796326794897 -2.094395102393196 -3.141592653589793  2.094395102393196 -2.094395102393196 -3.141592653589793  2.617993877991494 -2.094395102393196 -3.141592653589793  3.141592653589793 -2.094395102393196 -3.141592653589793  -3.141592653589793 -1.570796326794897 -3.141592653589793  -2.617993877991494 -1.570796326794897 -3.141592653589793  -2.094395102393196 -1.570796326794897 -3.141592653589793  -1.570796326794897 -1.570796326794897 -3.141592653589793  -1.047197551196598 -1.570796326794897 -3.141592653589793  -0.5235987755982987 -1.570796326794897 -3.141592653589793  0 -1.570796326794897 -3.141592653589793  0.5235987755982987 -1.570796326794897 -3.141592653589793  1.047197551196597 -1.570796326794897 -3.141592653589793  1.570796326794897 -1.570796326794897 -3.141592653589793  2.094395102393196 -1.570796326794897 -3.141592653589793  2.617993877991494 -1.570796326794897 -3.141592653589793  3.141592653589793 -1.570796326794897 -3.141592653589793  -3.141592653589793 -1.047197551196598 -3.141592653589793  -2.617993877991494 -1.047197551196598 -3.141592653589793  -2.094395102393196 -1.047197551196598 -3.141592653589793  -1.570796326794897 -1.047197551196598 -3.141592653589793  -1.047197551196598 -1.047197551196598 -3.141592653589793  -0.5235987755982987 -1.047197551196598 -3.141592653589793  0 -1.047197551196598 -3.141592653589793  0.5235987755982987 -1.047197551196598 -3.141592653589793  1.047197551196597 -1.047197551196598 -3.141592653589793  1.570796326794897 -1.047197551196598 -3.141592653589793  2.094395102393196 -1.047197551196598 -3.141592653589793  2.617993877991494 -1.047197551196598 -3.141592653589793  3.141592653589793 -1.047197551196598 -3.141592653589793  -3.141592653589793 -0.5235987755982987 -3.141592653589793  -2.617993877991494 -0.5235987755982987 -3.141592653589793  -2.094395102393196 -0.5235987755982987 -3.141592653589793  -1.570796326794897 -0.5235987755982987 -3.141592653589793  -1.047197551196598 -0.5235987755982987 -3.141592653589793  -0.5235987755982987 -0.5235987755982987 -3.141592653589793  0 -0.5235987755982987 -3.141592653589793  0.5235987755982987 -0.5235987755982987 -3.141592653589793  1.047197551196597 -0.5235987755982987 -3.141592653589793  1.570796326794897 -0.5235987755982987 -3.141592653589793  2.094395102393196 -0.5235987755982987 -3.141592653589793  2.617993877991494 -0.5235987755982987 -3.141592653589793  3.141592653589793 -0.5235987755982987 -3.141592653589793  -3.141592653589793 0 -3.141592653589793  -2.617993877991494 0 -3.141592653589793  -2.094395102393196 0 -3.141592653589793  -1.570796326794897 0 -3.141592653589793  -1.047197551196598 0 -3.141592653589793  -0.5235987755982987 0 -3.141592653589793  0 0 -3.141592653589793  0.5235987755982987 0 -3.141592653589793  1.047197551196597 0 -3.141592653589793  1.570796326794897 0 -3.141592653589793  2.094395102393196 0 -3.141592653589793  2.617993877991494 0 -3.141592653589793  3.141592653589793 0 -3.141592653589793  -3.141592653589793 0.5235987755982987 -3.141592653589793  -2.617993877991494 0.5235987755982987 -3.141592653589793  -2.094395102393196 0.5235987755982987 -3.141592653589793  -1.570796326794897 0.5235987755982987 -3.141592653589793  -1.047197551196598 0.5235987755982987 -3.141592653589793  -0.5235987755982987 0.5235987755982987 -3.141592653589793  0 0.5235987755982987 -3.141592653589793  0.5235987755982987 0.5235987755982987 -3.141592653589793  1.047197551196597 0.5235987755982987 -3.141592653589793  1.570796326794897 0.5235987755982987 -3.141592653589793  2.094395102393196 0.5235987755982987 -3.141592653589793  2.617993877991494 0.5235987755982987 -3.141592653589793  3.141592653589793 0.5235987755982987 -3.141592653589793  -3.141592653589793 1.047197551196597 -3.141592653589793  -2.617993877991494 1.047197551196597 -3.141592653589793  -2.094395102393196 1.047197551196597 -3.141592653589793  -1.570796326794897 1.047197551196597 -3.141592653589793  -1.047197551196598 1.047197551196597 -3.141592653589793  -0.5235987755982987 1.047197551196597 -3.141592653589793  0 1.047197551196597 -3.141592653589793  0.5235987755982987 1.047197551196597 -3.141592653589793  1.047197551196597 1.047197551196597 -3.141592653589793  1.570796326794897 1.047197551196597 -3.141592653589793  2.094395102393196 1.047197551196597 -3.141592653589793  2.617993877991494 1.047197551196597 -3.141592653589793  3.141592653589793 1.047197551196597 -3.141592653589793  -3.141592653589793 1.570796326794897 -3.141592653589793  -2.617993877991494 1.570796326794897 -3.141592653589793  -2.094395102393196 1.570796326794897 -3.141592653589793  -1.570796326794897 1.570796326794897 -3.141592653589793  -1.047197551196598 1.570796326794897 -3.141592653589793  -0.5235987755982987 1.570796326794897 -3.141592653589793  0 1.570796326794897 -3.141592653589793  0.5235987755982987 1.570796326794897 -3.141592653589793  1.047197551196597 1.570796326794897 -3.141592653589793  1.570796326794897 1.570796326794897 -3.141592653589793  2.094395102393196 1.570796326794897 -3.141592653589793  2.617993877991494 1.570796326794897 -3.141592653589793  3.141592653589793 1.570796326794897 -3.141592653589793  -3.141592653589793 2.094395102393196 -3.141592653589793  -2.617993877991494 2.094395102393196 -3.141592653589793  -2.094395102393196 2.094395102393196 -3.141592653589793  -1.570796326794897 2.094395102393196 -3.141592653589793  -1.047197551196598 2.094395102393196 -3.141592653589793  -0.5235987755982987 2.094395102393196 -3.141592653589793  0 2.094395102393196 -3.141592653589793  0.5235987755982987 2.094395102393196 -3.141592653589793  1.047197551196597 2.094395102393196 -3.141592653589793  1.570796326794897 2.094395102393196 -3.141592653589793  2.094395102393196 2.094395102393196 -3.141592653589793  2.617993877991494 2.094395102393196 -3.141592653589793  3.141592653589793 2.094395102393196 -3.141592653589793  -3.141592653589793 2.617993877991494 -3.141592653589793  -2.617993877991494 2.617993877991494 -3.141592653589793  -2.094395102393196 2.617993877991494 -3.141592653589793  -1.570796326794897 2.617993877991494 -3.141592653589793  -1.047197551196598 2.617993877991494 -3.141592653589793  -0.5235987755982987 2.617993877991494 -3.141592653589793  0 2.617993877991494 -3.141592653589793  0.5235987755982987 2.617993877991494 -3.141592653589793  1.047197551196597 2.617993877991494 -3.141592653589793  1.570796326794897 2.617993877991494 -3.141592653589793  2.094395102393196 2.617993877991494 -3.141592653589793  2.617993877991494 2.617993877991494 -3.141592653589793  3.141592653589793 2.617993877991494 -3.141592653589793  -3.141592653589793 3.141592653589793 -3.141592653589793  -2.617993877991494 3.141592653589793 -3.141592653589793  -2.094395102393196 3.141592653589793 -3.141592653589793  -1.570796326794897 3.141592653589793 -3.141592653589793  -1.047197551196598 3.141592653589793 -3.141592653589793  -0.5235987755982987 3.141592653589793 -3.141592653589793  0 3.141592653589793 -3.141592653589793  0.5235987755982987 3.141592653589793 -3.141592653589793  1.047197551196597 3.141592653589793 -3.141592653589793  1.570796326794897 3.141592653589793 -3.141592653589793  2.094395102393196 3.141592653589793 -3.141592653589793  2.617993877991494 3.141592653589793 -3.141592653589793  3.141592653589793 3.141592653589793 -3.141592653589793  -3.141592653589793 -3.141592653589793 -2.617993877991494  -2.617993877991494 -3.141592653589793 -2.617993877991494  -2.094395102393196 -3.141592653589793 -2.617993877991494  -1.570796326794897 -3.141592653589793 -2.617993877991494  -1.047197551196598 -3.141592653589793 -2.617993877991494  -0.5235987755982987 -3.141592653589793 -2.617993877991494  0 -3.141592653589793 -2.617993877991494  0.5235987755982987 -3.141592653589793 -2.617993877991494  1.047197551196597 -3.141592653589793 -2.617993877991494  1.570796326794897 
[...]
<PointData  Scalars="f_233960"> 
<DataArray  type="Float64"  Name="f_233960"  format="ascii">6.4601128746827691e-02  6.5987228065612247e-02  -1.8637772299405039e-02  1.5770174993426788e-03  7.4508297160652570e-04  -3.9317665206154935e-02  -7.2586340236224151e-02  -3.5919862161512051e-02  -1.2991885124477092e-02  -1.7851449020193152e-03  -2.8200292899574025e-02  5.5446775809737517e-02  6.4601128746827691e-02  4.9256079370451802e-02  -6.8338353727420775e-01  -1.0213325882031827e+00  -1.1402341458184297e+00  -1.0378973457652536e+00  -8.0921011019349098e-01  -5.9338629538412145e-02  6.7200653208306615e-01  1.1310283987528793e+00  1.1147745175617014e+00  9.6431446237014817e-01  7.9714617442974078e-01  4.9256079370451802e-02  6.4222584740245992e-03  -1.1355189678794899e+00  -1.4173811142107513e+00  -1.3713473616666882e+00  -1.6123501578812764e+00  -9.6068603841663103e-01  2.6060494297863546e-02  1.0094329361802554e+00  1.4249807993937142e+00  1.4160478298369872e+00  1.6196753553014129e+00  1.0329953956869009e+00  6.4222584740245992e-03  -7.1577019181386196e-03  -1.1037041105976246e+00  -1.4289966711819300e+00  -1.8259616271320580e+00  -1.4160654392424528e+00  -1.1105058309082547e+00  -5.0088809951439172e-03  1.1464015279513613e+00  1.3706947613106042e+00  1.8120580577642484e+00  1.3664515613969850e+00  1.1446754286533158e+00  -7.1577019181386196e-03  2.4555797828466744e-02  -9.6072332506079072e-01  -1.6221636025073363e+00  -1.3686951827014238e+00  -1.4193343162853365e+00  -1.1363852341756635e+00  7.4955993456565714e-03  1.0434447786713632e+00  1.6207049017391477e+00  1.4065037974384615e+00  1.4178930675883448e+00  1.0072231556718676e+00  2.4555797828466744e-02  -5.5419470146588302e-02  -8.1456296762320801e-01  -1.0306256639117541e+00  -1.1462769185780426e+00  -1.0075776430227181e+00  -6.6995429992071387e-01  4.6449643229015909e-02  8.0700568918167381e-01  9.6197467741027776e-01  1.1060085388079537e+00  1.1288601160893845e+00  6.7254838015505669e-01  -5.5419470146588302e-02  -5.0820858278892933e-02  -4.1044891052546613e-02  -8.4262959580132055e-03  8.0540502075753147e-03  -1.7585647369100541e-02  5.6940047433210156e-02  5.5345052083288111e-02  5.7905163970986787e-02  -2.3811032071744925e-02  3.0858743877888767e-03  -9.2036748729616060e-03  -5.2533192639272315e-02  -5.0820858278892933e-02  -6.4922416996572405e-02  6.7299565853044296e-01  1.1316147079215093e+00  1.1140269040900752e+00  9.6930218418432323e-01  8.0708336814745230e-01  3.9068113704420690e-02  -6.7052894606816738e-01  -1.0147949334994595e+00  -1.1375201749934036e+00  -1.0351529501745860e+00  -7.9841558240537147e-01  -6.4922416996572405e-02  2.1803905968156585e-02  1.0185149871185994e+00  1.4210849319837224e+00  1.4141400802753492e+00  1.6201003866923449e+00  1.0340483081134229e+00  5.3124103278642870e-03  -1.1374270834439482e+00  -1.4194618941967434e+00  -1.3746509733202787e+00  -1.6146567397394593e+00  -9.5980598027138964e-01  2.1803905968156585e-02  -8.7708642716137781e-03  1.1517935671479653e+00  1.3769317192865658e+00  1.8246086477702965e+00  1.3708078247517195e+00  1.1394068873756806e+00  -7.3901891868763444e-03  -1.1122989944573149e+00  -1.4188854908150832e+00  -1.8203702118478942e+00  -1.4136714917313387e+00  -1.1135289751224322e+00  -8.7708642716137781e-03  1.1262702693421523e-02  1.0368028118441164e+00  1.6203898978652840e+00  1.4089859592705394e+00  1.4243567462594797e+00  1.0042715416631727e+00  1.9650975812121562e-02  -9.6842416223068462e-01  -1.5993248097256647e+00  -1.3748071955634729e+00  -1.4170640456235379e+00  -1.1268313766607958e+00  1.1262702693421523e-02  3.6856996653758391e-02  8.1161600854389904e-01  9.6189771360625131e-01  1.1109932870900665e+00  1.1345663241658925e+00  6.8370848043019716e-01  -6.8577835594480260e-02  -8.0013146974803906e-01  -1.0336324517212057e+00  -1.1405615814490893e+00  -1.0105938872546665e+00  -6.6991539890667573e-01  3.6856996653758391e-02  6.4601128746827691e-02  6.5987228065612247e-02  -1.8637772299405039e-02  1.5770174993426788e-03  7.4508297160652570e-04  -3.9317665206154935e-02  -7.2586340236224151e-02  -3.5919862161512051e-02  -1.2991885124477092e-02  -1.7851449020193152e-03  -2.8200292899574025e-02  5.5446775809737517e-02  6.4601128746827691e-02  5.8980377359089946e-02  1.5437881636621424e-02  -3.7700742638401653e-02  -7.4395343965162498e-03  -5.6963302711495981e-02  -5.9990002984424563e-02  -3.7975004317429277e-02  -1.2082124309268184e-02  2.1921384852532168e-02  1.1951828705735004e-03  4.4463439694731363e-02  8.4442347323667996e-02  5.8980377359089946e-02  -2.8198160846594359e-03  -6.1556570903557595e-01  -8.7467604884884520e-01  -9.6677297959613540e-01  -9.7748084299776172e-01  -6.3869102781631126e-01  -2.9185213791706254e-02  6.1498478993122363e-01  9.0801127956635319e-01  9.5578284725955309e-01  9.0237833084438568e-01  6.5359792651063675e-01  -2.8198160846594359e-03  -2.6418601554231265e-02  -9.1042707124349176e-01  -1.2320990452727623e+00  -1.3968918033124922e+00  -1.4140973490299662e+00  -7.9752046120997144e-01  4.1046878135958899e-02  8.7112825000226701e-01  1.2250557803454638e+00  1.4111364888838742e+00  1.3985104465772984e+00  8.6029881157482413e-01  -2.6418601554231265e-02  -3.9352496940612517e-04  -9.5662166795480441e-01  -1.4115523180070411e+00  -1.6269238201324323e+00  -1.3681701976125433e+00  -9.5462774443229492e-01  1.3887214460750115e-02  9.5590090801336447e-01  1.3976883993894145e+00  1.6263639591249359e+00  1.3063484300782793e+00  9.8704001669022412e-01  -3.9352496940612517e-04  -4.4165915267550732e-02  -9.1623968910539599e-01  -1.3954273279846519e+00  -1.3019131801655064e+00  -1.3412728266632872e+00  -9.8994966645031235e-01  6.2851809327099620e-02  9.7168798255048983e-01  1.4022211306570571e+00  1.3559759130207114e+00  1.3295802882067591e+00  8.6648883018214395e-01  -4.4165915267550732e-02  -8.1004322395638026e-02  -6.5877348154738657e-01  -8.5568827247337820e-01  -9.8277446405486446e-01  -8.6535213007960698e-01  -4.9718705916708139e-01  6.1834327275453169e-02  6.4177011737616307e-01  8.0590852748538910e-01  9.5832806319722463e-01  9.8955614216948296e-01  5.0154967996252109e-01  -8.1004322395638026e-02  -5.3156207981515005e-02  -5.0370520568506546e-03  2.0052434740082975e-02  1.1701606240795222e-03  4.5830498202090481e-02  7.8648754780231950e-02  4.1274631082716326e-02  2.4478646108958786e-02  -3.6695661686046210e-02  -1.3418632155055180e-02  -6.2297826112273594e-02  -5.8869975719868184e-02  -5.3156207981515005e-02  -1.8642346544663513e-02  6.0648525112511464e-01  9.0470684463065076e-01  9.5823469379754034e-01  9.1408506759373720e-01  6.6278912698406878e-01  1.2958325271021337e-02  -6.1699185740327400e-01  -8.6688076517222890e-01  -9.5657491189195532e-01  -9.7201870341199381e-01  -6.4422184518082914e-01  -1.8642346544663513e-02  3.8861227159388320e-02  8.7604948170977781e-01  1.2254962837296008e+00  1.4140008716906092e+00  1.3977758321000362e+00  8.5650445746100812e-01  -3.1380178289658618e-02  -9.0404893264036490e-01  -1.2303056408553825e+00  -1.3974260412172319e+00  -1.3978785977074428e+00  -7.9882945495989055e-01  3.8861227159388320e-02  1.0680346814596363e-02  9.6422660096466084e-01  1.3967477786678986e+00  1.6360306992559024e+00  1.2970852089446192e+00  9.9032532787704786e-01  -8.2300023631991306e-03  -9.5594414369131786e-01  -1.4065354294693206e+00  -1.6298999968532906e+00  -1.3675725342960607e+00  -9.5441038499594066e-01  1.0680346814596363e-02  6.9029447413967895e-02  9.7356668113117073e-01  1.4061728176504789e+00  1.3613572254375348e+00  1.3381828762341732e+00  8.6875053464946717e-01  -5.1287595195874981e-02  -9.0893796810451966e-01  -1.3966501545904872e+00  -1.3104753209076543e+00  -1.3400993220877717e+00  -9.9783029761188569e-01  6.9029447413967895e-02  6.8203263924664331e-02  6.5353006187150542e-01  7.9610389993633568e-01  9.5501261691236206e-01  9.9251482953734105e-01  5.0530242257459757e-01  -7.1671540898118891e-02  -6.6666053782169477e-01  -8.4525901139269943e-01  -9.7260556300564605e-01  -8.6754601365964401e-01  -5.0645360161090791e-01  6.8203263924664331e-02  5.8980377359089946e-02  1.5437881636621424e-02  -3.7700742638401653e-02  -7.4395343965162498e-03  -5.6963302711495981e-02  -5.9990002984424563e-02  -3.7975004317429277e-02  -1.2082124309268184e-02  2.1921384852532168e-02  1.1951828705735004e-03  4.4463439694731363e-02  8.4442347323667996e-02  5.8980377359089946e-02  1.3634067005349386e-02  1.8267028067027659e-02  -2.1576733204325405e-02  -3.3771853243662983e-02  -4.5485422237735794e-02  -5.0455596440201735e-02  -2.0220512660094846e-02  1.9480929748295183e-03  3.2250680600302409e-02  2.1393201573580874e-02  4.5387314786490732e-02  1.3217587417245906e-02  1.3634067005349386e-02  1.5055613391055142e-02  -3.3498329253204573e-01  -5.2628972389277329e-01  -6.1439988649312882e-01  -5.7358017342161494e-01  -3.1945377576840789e-01  -9.6537679900242368e-03  3.2411723470793635e-01  5.3002224779679408e-01  6.3944921555806522e-01  5.6577235613738697e-01  3.2863522076869794e-01  1.5055613391055142e-02  -2.1856118430122369e-02  -5.3586155221737153e-01  -8.1706478514735159e-01  -9.7469318451823928e-01  -8.4184644782574047e-01  -4.3815959529563675e-01  1.3828544610090934e-02  5.3066703626866396e-01  8.1903831919098735e-01  9.7325628537539177e-01  8.2428941083114626e-01  4.6696722849231814e-01  -2.1856118430122369e-02  -2.7816477608356156e-02  -6.3258886107067058e-01  -9.7671193095942799e-01  -1.0455619901619970e+00  -9.0686236654071728e-01  -5.3241789031094899e-01  3.5029924351510380e-02  6.1566537286422263e-01  9.7369530079066213e-01  1.0407391564212978e+00  9.1344403722690171e-01  5.4940585572932088e-01  -2.7816477608356156e-02  -5.5154104347294439e-02  -5.6151508706919651e-01  -8.2281409750803303e-01  -9.1232708900829740e-01  -8.1087729851764145e-01  -4.8331111194962512e-01  5.2329661064061811e-02  5.8170004897043126e-01  8.4658084338012263e-01  9.0211866291808440e-01  8.0069413992532135e-01  4.6256268164775732e-01  -5.5154104347294439e-02  -2.3803031669897792e-02  -3.2915117228516472e-01  -4.7561342918355065e-01  -5.4446328962278367e-01  -4.5131159600613624e-01  -1.9649691704791428e-01  4.9702463852877875e-02  3.0783604034873946e-01  4.3810967999098727e-01  5.2838796571152147e-01  4.8661656480176763e-01  2.0437039833058271e-01  -2.3803031669897792e-02  -2.7023063166777873e-02  -3.3089778698082778e-03  2.8189005353022639e-02  2.6389323553915708e-02  5.3688627684808886e-02  2.6083184808630148e-02  2.4969513418391678e-02  1.3828843965809152e-02  -2.6952062438309457e-02  -3.5473471600101010e-02  -4.4626064100363502e-02  -5.1782055000867869e-02  -2.7023063166777873e-02  -1.2946964710740786e-02  3.2015014648592044e-01  5.2484000392882180e-01  6.4345451009249777e-01  5.6672746061316159e-01  3.3502501924128497e-01  1.1642597210737302e-02  -3.2920111767040738e-01  -5.2532447890315848e-01  -6.0443989429745892e-01  -5.7802245257480744e-01  -3.1098243196862002e-01  -1.2946964710740786e-02  2.3695800371630393e-02  5.1371119922243769e-01  8.2086581985188223e-01  9.7194606959582297e-01  8.1948376366213704e-01  4.6540958251498993e-01  -3.1638194857041106e-02  -5.3654848735361138e-01  -8.1756887154543245e-01  -9.6559594181373154e-01  -8.3950457275547929e-01  -4.3435424724720723e-01  2.3695800371630393e-02  3.6411408723502944e-02  6.1609114841563162e-01  9.7021495657411050e-01  1.0516925483048707e+00  9.0654913123962011e-01  5.4566479535169055e-01  -3.6341493277442918e-02  -6.3881691422096820e-01  -9.7000998550620943e-01  -1.0464390404372523e+00  -9.0250482687969136e-01  -5.3696232608306294e-01  3.6411408723502944e-02  4.5954029779045974e-02  5.8036752329119368e-01  8.4464228306731937e-01  9.0686011627711449e-01  8.1605433729582899e-01  4.5223372008862567e-01  -5.5688527154722292e-02  -5.6042170853806461e-01  -8.2419038772982778e-01  -9.0890355835049141e-01  -8.1300228054568868e-01  -4.8747921677198663e-01  4.5954029779045974e-02  5.6846355642218405e-02  3.0132232655339769e-01  4.3631741283006725e-01  5.3171237556876050e-01  4.9037275301608030e-01  2.0412855316684850e-01  -1.9999315410293535e-02  -3.2506934448150204e-01  -4.6967396448266246e-01  -5.4836064223359438e-01  -4.5310321321097197e-01  -2.0931527408857509e-01  5.6846355642218405e-02  1.3634067005349386e-02  1.8267028067027659e-02  -2.1576733204325405e-02  -3.3771853243662983e-02  -4.5485422237735794e-02  -5.0455596440201735e-02  -2.0220512660094846e-02  1.9480929748295183e-03  3.2250680600302409e-02  2.1393201573580874e-02  4.5387314786490732e-02  1.3217587417245906e-02  1.3634067005349386e-02  6.6334314323605228e-03  -1.4191705345575897e-02  -2.0788522007425165e-02  -1.6151721456962802e-02  -2.1915412210375119e-02  -1.5572421572874438e-02  2.3692230476357576e-04  1.6389463819041215e-03  2.2352988557834640e-02  4.0084876052733601e-02  2.2835672740027527e-02  1.5264680560063337e-02  6.6334314323605228e-03  -1.0521387920842333e-02  -5.0361278100554317e-02  -5.6499502467127850e-02  -5.4572520955238332e-02  -4.0640500086184930e-02  -3.2165587107040893e-03  1.9859320872364118e-02  5.3542089144449405e-02  7.7971331255714219e-02  4.1553251854262271e-02  8.0977934190808350e-03  9.8549394977812833e-03  -1.0521387920842333e-02  -3.0120470817512620e-02  -7.2395797520729097e-02  -7.5038621937535063e-02  -5.5339941181574134e-02  -4.6612711387475863e-04  2.9006574018295837e-02  2.7077202401232188e-02  3.4011971498188576e-02  7.7271254865039080e-02  5.5065587861014655e-02  -5.2286035572325239e-04  -3.2158947192869399e-03  -3.0120470817512620e-02  -3.4268153791851948e-02  -4.9087621107806352e-02  -4.9512337144399739e-02  -6.8135765164909707e-03  5.4130838549473460e-02  5.1425485383823979e-02  6.9081720992626300e-03  4.4979749912289368e-02  5.6069098388661656e-02  3.5967404174857497e-03  -4.6256819483644351e-02  -4.1207425352257437e-02  -3.4268153791851948e-02  -2.5664161097561970e-02  -1.2239392002727555e-03  -3.9079098471325553e-03  4.7657694363221141e-02  9.1497234564289986e-02  4.7019542470884079e-02  2.5918545629841874e-02  4.1270777032475357e-02  -3.4828387291050665e-03  -4.7422485638654532e-02  -7.8867007387904989e-02  -7.2053702700862268e-02  -2.5664161097561970e-02  -1.8078645503137699e-02  -3.2172706912055133e-03  8.2186839883126826e-03  4.6758738756999436e-02  7.4428714488138759e-02  4.8658908576455669e-02  2.1519433957698467e-02  5.4276692412944917e-03  -3.8182735972948044e-02  -4.7373894441106616e-02  -5.5971688658949942e-02  -4.8709306575229309e-02  -1.8078645503137699e-02  1.1084328439606977e-03  1.6632060623717724e-02  2.8781214506738172e-02  3.2367862762745676e-02  3.0577692861928681e-02  1.0168369023116370e-02  5.7344352931692020e-03  -1.0156065435760440e-02  -2.3791502522156730e-02  -7.0937756588700020e-03  -1.7859289697133809e-02  -3.0121225601386883e-02  1.1084328439606977e-03  1.5092235285640347e-02  4.5755473134561610e-02  7.1040641648311989e-02  4.8926533179570714e-02  1.0373027714609285e-02  2.7314973876480706e-03  -5.6118150694446853e-03  -4.8012980437848941e-02  -4.7466507528789205e-02  -3.5972405089784276e-02  -4.2614126097967983e-02  -6.0171986991316843e-04  1.5092235285640347e-02  1.3522950953526193e-02  4.9798329161244118e-02  7.6714240096603478e-02  4.4165224481954153e-02  -8.6442297000547050e-03  -1.0012863011280480e-02  -3.3502536314427511e-02  -7.5176449697098940e-02  -7.1838763316334819e-02  -5.4936303829598160e-02  3.5934934093492335e-03  3.8004444040351214e-02  1.3522950953526193e-02  2.5152017143640734e-03  4.7685114731309090e-02  5.3678014474867135e-02  -2.8080425633108036e-03  -5.0327440909998945e-02  -5.5701461617959067e-02  -3.3063791090769692e-02  -4.4841081181671842e-02  -4.4773210684745303e-02  -1.3306157482566980e-03  6.5563536422652322e-02  4.4971366810546913e-02  2.5152017143640734e-03  2.6889518508923585e-02  4.5360519132645043e-02  5.0838929319586739e-03  -5.0153840490806852e-02  -7.5603924297698799e-02  -7.4397636317670740e-02  -4.1594172356831688e-02  -3.3775816284814441e-03  -2.1151831256049792e-03  4.3936525204541971e-02  7.1278298610356630e-02  4.5454785580678031e-02  2.6889518508923585e-02  2.0829424040545021e-02  -3.4891773408091613e-03  -3.5571950445473080e-02  -4.0754880528611322e-02  -4.9299777018797772e-02  -5.1390628265474858e-02  -8.4770691012086789e-03  -2.6661005040398169e-04  1.5504543171161227e-02  3.1355042909717072e-02  7.6743082705593019e-02  4.5806022432877326e-02  2.0829424040545021e-02  6.6334314323605228e-03  -1.4191705345575897e-02  -2.0788522007425165e-02  -1.6151721456962802e-02  -2.1915412210375119e-02  -1.5572421572874438e-02  2.3692230476357576e-04  1.6389463819041215e-03  2.2352988557834640e-02  4.0084876052733601e-02  2.2835672740027527e-02  1.5264680560063337e-02  6.6334314323605228e-03  -2.2183072433265130e-02  -4.7409916076670160e-02  -5.2731945937368657e-02  -3.5494934767417025e-02  -3.4109669625045178e-02  1.4432135362590701e-02  1.5494728448381897e-02  3.4435543795479605e-02  6.0676527926987453e-02  2.7724861775982046e-02  2.5452809803906136e-02  3.2613654579888257e-03  -2.2183072433265130e-02  -2.3771788394143175e-02  2.0316139882925546e-01  4.9341758596410690e-01  5.3161218174941238e-01  4.4119818121552473e-01  3.0296193643539543e-01  5.2608265521410187e-02  -2.1019630670401132e-01  -4.6583677774579785e-01  -5.5958251296100381e-01  -4.7221519659479927e-01  -3.2690715807615778e-01  -2.3771788394143175e-02  -5.0773641230009658e-02  4.4846572805777501e-01  8.1810544654569517e-01  9.0753797059472674e-01  8.4085929686429062e-01  5.8102950191042868e-01  4.7197235274665010e-02  -4.9357774614067307e-01  -8.1158708254711120e-01  -9.0940654922947173e-01  -8.1710132056838680e-01  -5.5776887593609603e-01  -5.0773641230009658e-02  -2.8554364981896237e-02  5.5237559010544224e-01  9.0507329391966784e-01  1.0533135875526229e+00  9.6988789501157280e-01  6.1254195638531017e-01  1.9968007418493770e-02  -5.3639402025664273e-01  -8.9944358815500824e-01  -1.0431912073011529e+00  -9.7341082699349768e-01  -6.2824336313947282e-01  -2.8554364981896237e-02  -1.5340502475712730e-02  4.6814010364336966e-01  8.2625532474571317e-01  9.8194469097660508e-01  8.1154817138886504e-01  5.1375740116030078e-01  2.0648675929142938e-02  -4.3814715953909245e-01  -8.5179205001305947e-01  -9.7153820430785864e-01  -8.1739414523913767e-01  -5.3099577875744441e-01  -1.5340502475712730e-02  7.1730227951919022e-03  3.2738925936578989e-01  5.6061054543696087e-01  6.2823970184494549e-01  5.2891199249073573e-01  3.1827943004771103e-01  2.0516806302537196e-04  -3.0868600488059905e-01  -5.8884148736160125e-01  -6.1728531357634564e-01  -5.1582844236971515e-01  -3.3567643254416640e-01  7.1730227951919022e-03  1.9591308029164759e-02  3.3548644965276639e-02  4.7412476599082889e-02  2.4562002372447909e-02  3.4927696545794737e-02  -4.1764320185578236e-03  -1.2508638125778428e-02  -4.9797425117330221e-02  -2.6970510149429805e-02  -1.6699556520289434e-02  -1.1236852560240920e-02  4.6002609525694141e-03  1.9591308029164759e-02  5.1802110809656521e-02  -2.0656927600370406e-01  -4.5981133911866745e-01  -5.5281598507512653e-01  -4.7249605483521290e-01  -3.2943638360883815e-01  -3.1694482687068710e-02  2.2220439974734962e-01  4.9551844538064321e-01  5.4226642507828804e-01  4.3510532324677770e-01  2.9310815470840051e-01  5.1802110809656521e-02  4.2787591661071642e-02  -4.8679232511624876e-01  -8.1122009464544520e-01  -9.0873520829053112e-01  -8.2872890426813772e-01  -5.6245340650308095e-01  -5.4365962954815196e-02  4.6835021594522491e-01  8.1668493541733633e-01  9.1447038740893372e-01  8.3924722579527522e-01  5.8174154403885725e-01  4.2787591661071642e-02  2.4030871043258795e-02  -5.3042166471706031e-01  -9.1683215088968550e-01  -1.0420938131289288e+00  -9.8256403084177990e-01  -6.4167693453872721e-01  -2.6787303259930947e-02  5.5453093209006776e-01  9.0646022573723406e-01  1.0584923032593778e+00  9.8197749292142211e-01  6.1746524721921126e-01  2.4030871043258795e-02  1.0666956496038844e-02  -4.4128490885329325e-01  -8.3675730198588338e-01  -9.6345845542307140e-01  -8.1635725959283745e-01  -5.3940499454561386e-01  -2.729032404119