<?xml version="1.0"?>
<VTKFile type="UnstructuredGrid"  version="0.1"  >
<UnstructuredGrid>
<Piece  NumberOfPoints="9261" NumberOfCells="48000">
<Points>
<DataArray  type="Float64"  NumberOfComponents="3"  format="ascii">-3.141592653589793 -3.141592653589793 -3.141592653589793  -2.827433388230814 -3.141592653589793 -3.141592653589793  -2.513274122871834 -3.141592653589793 -3.141592653589793  -2.199114857512855 -3.141592653589793 -3.141592653589793  -1.884955592153876 -3.141592653589793 -3.141592653589793  -1.570796326794897 -3.141592653589793 -3.141592653589793  -1.256637061435917 -3.141592653589793 -3.141592653589793  -0.9424777960769379 -3.141592653589793 -3.141592653589793  -0.6283185307179586 -3.141592653589793 -3.141592653589793  -0.3141592653589793 -3.141592653589793 -3.141592653589793  0 -3.141592653589793 -3.141592653589793  0.3141592653589789 -3.141592653589793 -3.141592653589793  0.6283185307179586 -3.141592653589793 -3.141592653589793  0.9424777960769379 -3.141592653589793 -3.141592653589793  1.256637061435917 -3.141592653589793 -3.141592653589793  1.570796326794897 -3.141592653589793 -3.141592653589793  1.884955592153876 -3.141592653589793 -3.141592653589793  2.199114857512855 -3.141592653589793 -3.141592653589793  2.513274122871834 -3.141592653589793 -3.141592653589793  2.827433388230814 -3.141592653589793 -3.141592653589793  3.141592653589793 -3.141592653589793 -3.141592653589793  -3.141592653589793 -2.827433388230814 -3.141592653589793  -2.827433388230814 -2.827433388230814 -3.141592653589793  -2.513274122871834 -2.827433388230814 -3.141592653589793  -2.199114857512855 -2.827433388230814 -3.141592653589793  -1.884955592153876 -2.827433388230814 -3.141592653589793  -1.570796326794897 -2.827433388230814 -3.141592653589793  -1.256637061435917 -2.827433388230814 -3.141592653589793  -0.9424777960769379 -2.827433388230814 -3.141592653589793  -0.6283185307179586 -2.827433388230814 -3.141592653589793  -0.3141592653589793 -2.827433388230814 -3.141592653589793  0 -2.827433388230814 -3.141592653589793  0.3141592653589789 -2.827433388230814 -3.141592653589793  0.6283185307179586 -2.827433388230814 -3.141592653589793  0.9424777960769379 -2.827433388230814 -3.141592653589793  1.256637061435917 -2.827433388230814 -3.141592653589793  1.570796326794897 -2.827433388230814 -3.141592653589793  1.884955592153876 -2.827433388230814 -3.141592653589793  2.199114857512855 -2.827433388230814 -3.141592653589793  2.513274122871834 -2.827433388230814 -3.141592653589793  2.827433388230814 -2.827433388230814 -3.141592653589793  3.141592653589793 -2.827433388230814 -3.141592653589793  -3.141592653589793 -2.513274122871834 -3.141592653589793  -2.827433388230814 -2.513274122871834 -3.141592653589793  -2.513274122871834 -2.513274122871834 -3.141592653589793  -2.199114857512855 -2.513274122871834 -3.141592653589793  -1.884955592153876 -2.513274122871834 -3.141592653589793  -1.570796326794897 -2.513274122871834 -3.141592653589793  -1.256637061435917 -2.513274122871834 -3.141592653589793  -0.9424777960769379 -2.513274122871834 -3.141592653589793  -0.6283185307179586 -2.513274122871834 -3.141592653589793  -0.3141592653589793 -2.513274122871834 -3.141592653589793  0 -2.513274122871834 -3.141592653589793  0.3141592653589789 -2.513274122871834 -3.141592653589793  0.6283185307179586 -2.513274122871834 -3.141592653589793  0.9424777960769379 -2.513274122871834 -3.141592653589793  1.256637061435917 -2.513274122871834 -3.141592653589793  1.570796326794897 -2.513274122871834 -3.141592653589793  1.884955592153876 -2.513274122871834 -3.141592653589793  2.199114857512855 -2.513274122871834 -3.141592653589793  2.513274122871834 -2.513274122871834 -3.141592653589793  2.827433388230814 -2.513274122871834 -3.141592653589793  3.141592653589793 -2.513274122871834 -3.141592653589793  -3.141592653589793 -2.199114857512855 -3.141592653589793  -2.827433388230814 -2.199114857512855 -3.141592653589793  -2.513274122871834 -2.199114857512855 -3.141592653589793  -2.199114857512855 -2.199114857512855 -3.141592653589793  -1.884955592153876 -2.199114857512855 -3.141592653589793  -1.570796326794897 -2.199114857512855 -3.141592653589793  -1.256637061435917 -2.199114857512855 -3.141592653589793  -0.9424777960769379 -2.199114857512855 -3.141592653589793  -0.6283185307179586 -2.199114857512855 -3.141592653589793  -0.3141592653589793 -2.199114857512855 -3.141592653589793  0 -2.199114857512855 -3.141592653589793  0.3141592653589789 -2.199114857512855 -3.141592653589793  0.6283185307179586 -2.199114857512855 -3.141592653589793  0.9424777960769379 -2.199114857512855 -3.141592653589793  1.256637061435917 -2.199114857512855 -3.141592653589793  1.570796326794897 -2.199114857512855 -3.141592653589793  1.884955592153876 -2.199114857512855 -3.141592653589793  2.199114857512855 -2.199114857512855 -3.141592653589793  2.513274122871834 -2.199114857512855 -3.141592653589793  2.827433388230814 -2.199114857512855 -3.141592653589793  3.141592653589793 -2.199114857512855 -3.141592653589793  -3.141592653589793 -1.884955592153876 -3.141592653589793  -2.827433388230814 -1.884955592153876 -3.141592653589793  -2.513274122871834 -1.884955592153876 -3.141592653589793  -2.199114857512855 -1.884955592153876 -3.141592653589793  -1.884955592153876 -1.884955592153876 -3.141592653589793  -1.570796326794897 -1.884955592153876 -3.141592653589793  -1.256637061435917 -1.884955592153876 -3.141592653589793  -0.9424777960769379 -1.884955592153876 -3.141592653589793  -0.6283185307179586 -1.884955592153876 -3.141592653589793  -0.3141592653589793 -1.884955592153876 -3.141592653589793  0 -1.884955592153876 -3.141592653589793  0.3141592653589789 -1.884955592153876 -3.141592653589793  0.6283185307179586 -1.884955592153876 -3.141592653589793  0.9424777960769379 -1.884955592153876 -3.141592653589793  1.256637061435917 -1.884955592153876 -3.141592653589793  1.570796326794897 -1.884955592153876 -3.141592653589793  1.884955592153876 -1.884955592153876 -3.141592653589793  2.199114857512855 -1.884955592153876 -3.141592653589793  2.513274122871834 -1.884955592153876 -3.141592653589793  2.827433388230814 -1.884955592153876 -3.141592653589793  3.141592653589793 -1.884955592153876 -3.141592653589793  -3.141592653589793 -1.570796326794897 -3.141592653589793  -2.827433388230814 -1.570796326794897 -3.141592653589793  -2.513274122871834 -1.570796326794897 -3.141592653589793  -2.199114857512855 -1.570796326794897 -3.141592653589793  -1.884955592153876 -1.570796326794897 -3.141592653589793  -1.570796326794897 -1.570796326794897 -3.141592653589793  -1.256637061435917 -1.570796326794897 -3.141592653589793  -0.9424777960769379 -1.570796326794897 -3.141592653589793  -0.6283185307179586 -1.570796326794897 -3.141592653589793  -0.3141592653589793 -1.570796326794897 -3.141592653589793  0 -1.570796326794897 -3.141592653589793  0.3141592653589789 -1.570796326794897 -3.141592653589793  0.6283185307179586 -1.570796326794897 -3.141592653589793  0.9424777960769379 -1.570796326794897 -3.141592653589793  1.256637061435917 -1.570796326794897 -3.141592653589793  1.570796326794897 -1.570796326794897 -3.141592653589793  1.884955592153876 -1.570796326794897 -3.141592653589793  2.199114857512855 -1.570796326794897 -3.141592653589793  2.513274122871834 -1.570796326794897 -3.141592653589793  2.827433388230814 -1.570796326794897 -3.141592653589793  3.141592653589793 -1.570796326794897 -3.141592653589793  -3.141592653589793 -1.256637061435917 -3.141592653589793  -2.827433388230814 -1.256637061435917 -3.141592653589793  -2.513274122871834 -1.256637061435917 -3.141592653589793  -2.199114857512855 -1.256637061435917 -3.141592653589793  -1.884955592153876 -1.256637061435917 -3.141592653589793  -1.570796326794897 -1.256637061435917 -3.141592653589793  -1.256637061435917 -1.256637061435917 -3.141592653589793  -0.9424777960769379 -1.256637061435917 -3.141592653589793  -0.6283185307179586 -1.256637061435917 -3.141592653589793  -0.3141592653589793 -1.256637061435917 -3.141592653589793  0 -1.256637061435917 -3.141592653589793  0.3141592653589789 -1.256637061435917 -3.141592653589793  0.6283185307179586 -1.256637061435917 -3.141592653589793  0.9424777960769379 -1.256637061435917 -3.141592653589793  1.256637061435917 -1.256637061435917 -3.141592653589793  1.570796326794897 -1.256637061435917 -3.141592653589793  1.884955592153876 -1.256637061435917 -3.141592653589793  2.199114857512855 -1.256637061435917 -3.141592653589793  2.513274122871834 -1.256637061435917 -3.141592653589793  2.827433388230814 -1.256637061435917 -3.141592653589793  3.141592653589793 -1.256637061435917 -3.141592653589793  -3.141592653589793 -0.9424777960769379 -3.141592653589793  -2.827433388230814 -0.9424777960769379 -3.141592653589793  -2.513274122871834 -0.9424777960769379 -3.141592653589793  -2.199114857512855 -0.9424777960769379 -3.141592653589793  -1.884955592153876 -0.9424777960769379 -3.141592653589793  -1.570796326794897 -0.9424777960769379 -3.141592653589793  -1.256637061435917 -0.9424777960769379 -3.141592653589793  -0.9424777960769379 -0.9424777960769379 -3.141592653589793  -0.6283185307179586 -0.9424777960769379 -3.141592653589793  -0.3141592653589793 -0.9424777960769379 -3.141592653589793  0 -0.9424777960769379 -3.141592653589793  0.3141592653589789 -0.9424777960769379 -3.141592653589793  0.6283185307179586 -0.9424777960769379 -3.141592653589793  0.9424777960769379 -0.9424777960769379 -3.141592653589793  1.256637061435917 -0.9424777960769379 -3.141592653589793  1.570796326794897 -0.9424777960769379 -3.141592653589793  1.884955592153876 -0.9424777960769379 -3.141592653589793  2.199114857512855 -0.9424777960769379 -3.141592653589793  2.513274122871834 -0.9424777960769379 -3.141592653589793  2.827433388230814 -0.9424777960769379 -3.141592653589793  3.141592653589793 -0.9424777960769379 -3.141592653589793  -3.141592653589793 -0.6283185307179586 -3.141592653589793  -2.827433388230814 -0.6283185307179586 -3.141592653589793  -2.513274122871834 -0.6283185307179586 -3.141592653589793  -2.19
[...]
<PointData  Scalars="f_25572"> 
<DataArray  type="Float64"  Name="f_25572"  format="ascii">4.2386164183296500e-02  1.3123971424230013e-01  7.2931779304018993e-02  9.2670281833158841e-02  -8.3101775977314621e-02  -1.3841461158521523e-01  -9.3714054064337637e-02  -4.5663306023894575e-02  -5.8343620337621147e-03  -1.8927336514814947e-02  -4.2740813492560661e-02  -2.0068584084563929e-02  -7.1759366993104359e-03  -4.7150823405844117e-02  -9.5117254285893363e-02  -1.3968501357369992e-01  -8.4095370542467227e-02  9.1897429591528551e-02  7.2399330389157648e-02  1.3120833719308111e-01  4.2386164183296500e-02  1.9285398738458477e-02  -6.3110927826459262e-01  -6.2265690630992199e-01  -7.9386664667319429e-01  -1.0531072186338950e+00  -1.0193518149674452e+00  -8.9015239336635810e-01  -7.8946111990313506e-01  -7.1467386874922023e-01  -7.4606529000946931e-01  -1.3083298355625836e-01  6.3072123963160376e-01  7.4886360442541766e-01  8.8822013437683178e-01  1.0105213460230789e+00  1.1216385417609842e+00  1.0150431043971408e+00  7.8929628918908179e-01  5.4375582409547529e-01  7.4622876682766404e-01  1.9285398738458477e-02  6.8584106420060027e-03  -7.4928077360799472e-01  -2.0119189239651647e-01  -6.8687591608597776e-02  -4.7302935462438460e-02  -5.0063856877321990e-02  -3.4120092855262088e-02  -7.3196319391776496e-02  -4.5257340628911534e-02  -5.4444979018620510e-01  -7.1894296703303717e-02  6.2216736571863807e-01  2.0099457156694003e-01  1.2574536771918773e-01  6.8589600527737715e-02  6.1337539306073045e-02  1.3189381983412173e-02  1.3012287298974528e-02  4.4523832768447853e-02  7.1428805983399657e-01  6.8584106420060027e-03  4.7527747615760500e-02  -8.8881123244658466e-01  -1.2599974821289159e-01  -9.8953319219627411e-02  -1.0441297576522417e-01  -1.2321036894729553e-01  -1.0857722618160745e-01  -1.3038631344488463e-01  -1.3332437637083997e-02  -7.9010008025805212e-01  -9.0534340936536423e-02  7.9291420906709031e-01  6.8317311812448517e-02  9.8959141095990702e-02  1.0843836178209453e-01  1.1521287909852918e-01  1.1113267357329101e-01  1.3051257346769649e-01  7.2652549257336121e-02  7.8885225127450476e-01  4.7527747615760500e-02  9.6298924177965248e-02  -1.0111254335205171e+00  -6.8831449642694886e-02  -1.0836461625456778e-01  -8.9742875382867765e-02  -9.6881782599260211e-02  -9.0874703306513205e-02  -1.1090458859645951e-01  -1.3653253456364372e-02  -1.0158924345372204e+00  8.6177300714947849e-02  1.0518919857691049e+00  4.6884600004902660e-02  1.0455175490632355e-01  8.9761457043842044e-02  7.8292190899536332e-02  9.1062682362194475e-02  1.0861407551064793e-01  3.3558528177666518e-02  8.8922308831801367e-01  9.6298924177965248e-02  1.4155955073051024e-01  -1.1220385808871651e+00  -6.1767278326307989e-02  -1.1498998052583842e-01  -7.8236221780463980e-02  -7.9475246183881215e-02  -7.8127036737456121e-02  -1.1497651844456770e-01  -6.1830243123518557e-02  -1.1221928672167789e+00  1.4165971927127996e-01  1.0182235896273835e+00  4.9695464415505992e-02  1.2328099517789889e-01  9.6934301778399332e-02  7.9494815442263361e-02  9.6924469914602226e-02  1.2321551780118420e-01  4.9587606736131926e-02  1.0181146422371954e+00  1.4155955073051024e-01  8.5916311089118777e-02  -1.0151417699768479e+00  -1.3491311723797328e-02  -1.1095928767521375e-01  -9.1142231029238810e-02  -9.6982146203602640e-02  -8.9737198729188547e-02  -1.0828960048173093e-01  -6.9005939420327803e-02  -1.0108483011785105e+00  9.6685844150155270e-02  8.8924704777120600e-01  3.3801320677894847e-02  1.0877155815956772e-01  9.1132744689949627e-02  7.8300457476479415e-02  8.9824917223687420e-02  1.0455960127296655e-01  4.6887962889678704e-02  1.0514220431351873e+00  8.5916311089118777e-02  -9.0932294697437382e-02  -7.8924966187559065e-01  -1.3126786554081902e-02  -1.3028297043264828e-01  -1.0850449991791826e-01  -1.2299661716518881e-01  -1.0423853390792896e-01  -9.8678736296151190e-02  -1.2610966581333413e-01  -8.8850459623415479e-01  4.8190984739831889e-02  7.8869208057111073e-01  7.2692398516411072e-02  1.3040737397047505e-01  1.1104479267693093e-01  1.1518631206905480e-01  1.0846504425730642e-01  9.8951042429498870e-02  6.8397495641906905e-02  7.9242949869585200e-01  -9.0932294697437382e-02  -7.2125155947611458e-02  -5.4404565883076517e-01  -4.5325219420454671e-02  -7.3215525735704196e-02  -3.4131559023537837e-02  -5.0072827075179217e-02  -4.7227220701708816e-02  -6.8575632389581420e-02  -2.0147937813628247e-01  -7.4895403133595684e-01  7.6731362726801386e-03  7.1416069596318066e-01  4.4935994493534893e-02  1.3317077247449283e-02  1.3493595049257427e-02  6.1610754045671262e-02  6.8734076465186880e-02  1.2592991661708966e-01  2.0126427818381143e-01  6.2209054242432194e-01  -7.2125155947611458e-02  -1.3113393185110667e-01  -7.4600896022372287e-01  -7.1452735685384505e-01  -7.8934030299295121e-01  -8.9012109953872665e-01  -1.0193693520778786e+00  -1.0527505166626583e+00  -7.9326592258707951e-01  -6.2239454874705469e-01  -6.3064966231436048e-01  1.9821410972808595e-02  7.4573359345481360e-01  5.4415136453166568e-01  7.8976686878596880e-01  1.0154477496724603e+00  1.1218889019057119e+00  1.0106216707564906e+00  8.8829080703410745e-01  7.4886396298042879e-01  6.3058953425405662e-01  -1.3113393185110667e-01  -4.3020281392932985e-02  -1.8758046564687849e-02  -5.6461470492816029e-03  -4.5687022863037954e-02  -9.3963215000790398e-02  -1.3879367110084168e-01  -8.3496256830898119e-02  9.2131165991186745e-02  7.2369511987695437e-02  1.3087837515767983e-01  4.2098027954266364e-02  1.3010459156813706e-01  7.1559060775560623e-02  9.0989356732691318e-02  -8.4873052914950980e-02  -1.4021555741504765e-01  -9.5443080162417093e-02  -4.7417462990744112e-02  -7.4651681984706925e-03  -2.0533657322154886e-02  -4.3020281392932985e-02  -1.3236497259754679e-01  6.3059281954778290e-01  7.4870856629010418e-01  8.8817211312661015e-01  1.0104864403966942e+00  1.1214868159057989e+00  1.0148517367431560e+00  7.8916609237080093e-01  5.4382310555953572e-01  7.4559707049675383e-01  1.9113091643777974e-02  -6.3115913955627811e-01  -6.2213015223810597e-01  -7.9271195009067252e-01  -1.0520393218033277e+00  -1.0188768466178433e+00  -8.8988980741439572e-01  -7.8930427823428384e-01  -7.1442854786904708e-01  -7.4646722743639504e-01  -1.3236497259754679e-01  -7.3896032132152858e-02  6.2240958451433004e-01  2.0109002142104174e-01  1.2552796039952085e-01  6.8454898787302321e-02  6.1338013022487821e-02  1.3387492055944696e-02  1.3263336474385500e-02  4.5046870899545045e-02  7.1408394141768250e-01  6.9165669366750143e-03  -7.4908136526889402e-01  -2.0076932751406648e-01  -6.8232965491663009e-02  -4.6778607398378184e-02  -4.9648118903126127e-02  -3.3727937173286412e-02  -7.2888678476547300e-02  -4.4456511266954990e-02  -5.4339944160850029e-01  -7.3896032132152858e-02  -9.3312035148132189e-02  7.9366435633641408e-01  6.8744162012923354e-02  9.8902279578315822e-02  1.0853077394462106e-01  1.1525124918411507e-01  1.1113579251883975e-01  1.3038370590416409e-01  7.2825933967268136e-02  7.8858470465749619e-01  4.7369845399899933e-02  -8.8867157940588815e-01  -1.2572915552004837e-01  -9.8801496019049972e-02  -1.0428948477865567e-01  -1.2296896733315908e-01  -1.0849392128365225e-01  -1.3052645664671061e-01  -1.2803170844491724e-02  -7.8893252791672941e-01  -9.3312035148132189e-02  8.3483058395593765e-02  1.0527798609350656e+00  4.7207633581964829e-02  1.0439436683950648e-01  8.9892856861679873e-02  7.8296461053430522e-02  9.1213880401823336e-02  1.0874307872554161e-01  3.3881294046836444e-02  8.8927424262160237e-01  9.5719435589469187e-02  -1.0109159289892939e+00  -6.8530140616697113e-02  -1.0827934694979670e-01  -8.9628612089944298e-02  -9.6804626060165100e-02  -9.1016689596674027e-02  -1.1113488906954115e-01  -1.2801690201694610e-02  -1.0148095304462146e+00  8.3483058395593765e-02  1.3983013695154159e-01  1.0189410623911237e+00  4.9780312570662948e-02  1.2324530449718545e-01  9.6988173060818514e-02  7.9543910104387952e-02  9.7074728168053515e-02  1.2325651987516295e-01  5.0079778468369134e-02  1.0186003732554498e+00  1.4016509943191735e-01  -1.1214965152629583e+00  -6.1177811829595717e-02  -1.1507542176361991e-01  -7.8165788629942945e-02  -7.9393644750378189e-02  -7.8226909894275914e-02  -1.1512730215645331e-01  -6.0982912116709691e-02  -1.1216336261195994e+00  1.3983013695154159e-01  9.5524399412343503e-02  8.8957014105139465e-01  3.3778268004972231e-02  1.0869541614540988e-01  9.1095998943549694e-02  7.8305496981205217e-02  8.9973251911237534e-02  1.0450154682829398e-01  4.7590436627891253e-02  1.0524635629568997e+00  8.3718094815688454e-02  -1.0144239809953031e+00  -1.2990112062204935e-02  -1.1114407843993279e-01  -9.0976484926685336e-02  -9.6822789307434390e-02  -8.9731188439595724e-02  -1.0836550612035462e-01  -6.8303579122730884e-02  -1.0107411724786699e+00  9.5524399412343503e-02  4.7426276629032538e-02  7.8889806856682165e-01  7.2697895610566374e-02  1.3042494793219006e-01  1.1099497552840981e-01  1.1516183416587791e-01  1.0865656547181417e-01  9.9138069257293418e-02  6.9012562531530319e-02  7.9333845642940493e-01  -9.3276131396655609e-02  -7.8857767547495083e-01  -1.3065334629330084e-02  -1.3056613236321374e-01  -1.0853418727035834e-01  -1.2307343062480429e-01  -1.0440403853763866e-01  -9.8831571404388849e-02  -1.2563942445355061e-01  -8.8856167627394755e-01  4.7426276629032538e-02  7.1846583514949356e-03  7.1429590203621873e-01  4.4687467059661451e-02  1.3290653710671672e-02  1.3370018369811890e-02  6.1432302269785057e-02  6.8733152672770886e-02  1.2587930032036335e-01  2.0130361826231891e-01  6.2211526814188078e-01  -7.3902234193275754e-02  -5.4331530373804993e-01  -4.4792666899399577e-02  -7.3086132873880397e-02  -3.3937396970372027e-02  -4.9807349028174762e-02  -4.6927322625558335e-02  -6.8359609044433972e-02  -2.0100899816463430e-01  -7.4912011580506022e-01  7.1846583514949356e-03  1.9624404299795135e-02  7.4608293650579949e-01  5.4386441266906338e-01  7.8957334368037990e-01  1.0150999176825197e+00  1.1214848459503848e+00  1.0102313063760873e+00  8.8791553844249493e-01  7.4855442849373921e-01  6.3036869186103217e-01  -1.3229031071046379e-01  -7.4634308067418043e-01  -7.1448129837472352e-01  -7.8930545189816903e-01  -8.9000011155973635e-01  -1.0190970490018847e+00  -1.0524106584160353e+00  -7.9305571855096268e-01  -6.2231982781630191e-01  -6.3096229427718864e-01  1.9624404299795135e-02  4.2386164183296500e-02  1.3123971424230013e-01  7.2931779304018993e-02  9.2670281833158841e-02  -8.3101775977314621e-02  -1.3841461158521523e-01  -9.3714054064337637e-02  -4.5663306023894575e-02  -5.8343620337621147e-03  -1.8927336514814947e-02  -4.2740813492560661e-02  -2.0068584084563929e-02  -7.1759366993104359e-03  -4.7150823405844117e-02  -9.5117254285893363e-02  -1.3968501357369992e-01  -8.4095370542467227e-02  9.1897429591528551e-02  7.2399330389157648e-02  1.3120833719308111e-01  4.2386164183296500e-02  9.6052902123111971e-03  9.1272757321174319e-02  7.1774801385053280e-02  1.6135370301860438e-01  5.4072810547008028e-02  -1.0861092607230928e-01  -1.9530444589253246e-01  -1.9683182309472294e-01  -1.7507341862463205e-01  -8.7995840559522254e-02  -9.9011734518040864e-03  6.8114551817713559e-02  1.5051606008037877e-01  1.3373588852828949e-01  2.7140624327860120e-02  -1.8850210247726323e-01  -2.5052912567443197e-01  -6.8363479309308403e-02  4.1531376416653462e-03  1.5524731745983458e-01  9.6052902123111971e-03  -6.9143961584620064e-02  -4.3618070778343543e-01  -3.9061443466228335e-01  -6.9990856442479077e-01  -1.0529027912160145e+00  -1.0066576694324096e+00  -8.3988616264383331e-01  -6.5944055896512366e-01  -6.5833212303442756e-01  -6.1763640353914984e-01  -9.0985172110090662e-02  4.3606891820487725e-01  5.4307377767859777e-01  6.6562649876624924e-01  8.3009332638764477e-01  1.0428175306332017e+00  9.8738572288087290e-01  7.6393999637084220e-01  4.0455911970594033e-01  6.9112686063146811e-01  -6.9143961584620064e-02  -1.5118695154224115e-01  -5.4335497217054507e-01  -1.2995253378586141e-01  -1.5605387764283465e-01  -1.4310163038844778e-01  -1.2324460045018715e-01  -1.4349734479612550e-01  -7.9363553880272331e-02  -1.2363147559142633e-01  -4.4515356343546536e-01  -7.1003581359512111e-02  3.9028396328998816e-01  1.2955973864859077e-01  3.0464015355747481e-02  8.0203124904569462e-02  1.3876686978656955e-01  1.1063074800573443e-01  -2.3937499449924859e-02  -1.3034994030313016e-01  7.0368489622759711e-01  -1.5118695154224115e-01  -1.3378005506668322e-01  -6.6630973784851943e-01  -3.0701032646474842e-02  -4.7841506377371237e-02  -1.5998139420006535e-01  -2.8904834079985858e-01  -2.5468857429184399e-01  -1.5018166636339270e-01  -1.1704333516839370e-01  -7.1786417423535009e-01  -1.5963520666047817e-01  6.9952545590072024e-01  1.5537272190008630e-01  4.7677892803736868e-02  2.4466342766788418e-01  2.2768474605701591e-01  9.7959125170090811e-02  8.0244593217643670e-02  -3.6633426270100813e-02  7.9728345737771766e-01  -1.3378005506668322e-01  -2.6385887974662074e-02  -8.3102297412003878e-01  -8.0373297459962426e-02  -2.4443461060003641e-01  -2.6658499429262639e-01  -2.9205724404614175e-01  -2.5836981113330082e-01  -1.7254823949211576e-01  -7.7064578123402045e-03  -9.7572818459857191e-01  -5.1406257964684184e-02  1.0524893837379961e+00  1.4218386325050639e-01  1.5986630987116171e-01  2.6675130627947191e-01  3.1546049334236881e-01  3.7237844867991160e-01  2.8259051523874612e-01  -4.8381324207470190e-03  8.3758491724108874e-01  -2.6385887974662074e-02  1.8983919648974018e-01  -1.0434435330460492e+00  -1.3915394937596473e-01  -2.2732155073143315e-01  -3.1518807376092117e-01  -4.0650757288305323e-01  -4.0434958241934732e-01  -2.4873731538769439e-01  3.6445178700331829e-02  -1.1468319406551808e+00  1.1173746208576868e-01  1.0060594107973910e+00  1.2265473667919323e-01  2.8916808596072796e-01  2.9227512543571710e-01  4.0637368595516776e-01  4.9310448256766248e-01  2.3524143871133718e-01  4.8671781239508986e-02  9.2086839623907091e-01  1.8983919648974018e-01  2.5184455555346769e-01  -9.8728990014651830e-01  -1.1123620560650481e-01  -9.7356688390554655e-02  -3.7219244356923903e-01  -4.9324771637428144e-01  -3.3715959966440540e-01  -1.9811453042372645e-01  1.2968909348949641e-02  -1.1206239862079204e+00  1.9822940031100866e-01  8.3889862804827908e-01  1.4311496852898281e-01  2.5479859904315072e-01  2.5843254495565543e-01  4.0393736012716858e-01  3.3718639875162415e-01  6.5680563262723798e-02  9.4773438933552070e-02  9.2855593834591676e-01  2.5184455555346769e-01  6.9007506962070808e-02  -7.6373175395598103e-01  2.3587111032998875e-02  -7.9732126150332094e-02  -2.8217353792551525e-01  -2.3496151804046836e-01  -6.5366593152175953e-02  -4.1067688117297323e-02  -1.5717901191806848e-02  -9.5388165414836257e-01  1.9945630622145391e-01  6.5840676661514042e-01  7.8948435781014056e-02  1.5016795630487276e-01  1.7235728542460840e-01  2.4859304392388307e-01  1.9853536587034246e-01  4.1454797861815468e-02  1.3225404708306826e-01  7.2094301549420781e-01  6.9007506962070808e-02  -4.0663498652610108e-03  -4.0463398589222754e-01  1.2992460822964483e-01  3.6705466728464815e-02  5.0670346456186113e-03  -4.8785987216080587e-02  -9.4962365302217550e-02  -1.3226890944160805e-01  -2.0197925597712241e-01  -7.5098579415440714e-01  1.7734246196287221e-01  6.5789669254258321e-01  1.2362453771632964e-01  1.1731953600648218e-01  7.7873868538175552e-03  -3.6491262390098991e-02  -1.2937090915898682e-02  1.5749137478387951e-02  2.0190825594410963e-01  5.5344871755790959e-01  -4.0663498652610108e-03  -1.5537429630174648e-01  -6.9130537208157039e-01  -7.0416155908345968e-01  -7.9801053633728547e-01  -8.3845101780382358e-01  -9.2193198446847091e-01  -9.2952617563391293e-01  -7.2145788381997500e-01  -5.5359766685151435e-01  -5.5318900573487839e-01  8.9071871166819097e-02  6.1728326496424846e-01  4.4485842608188231e-01  7.1740846449520013e-01  9.7513081248888023e-01  1.1462847028603722e+00  1.1203295076077717e+00  9.5393030643781462e-01  7.5118486825823194e-01  5.5333533747585695e-01  -1.5537429630174648e-01  -1.0344967096749079e-02  6.9249927853788154e-02  1.5198726779802851e-01  1.3523416700732685e-01  2.8291934526113994e-02  -1.8773233439354242e-01  -2.5005842608342238e-01  -6.8151993170935760e-02  4.1514682552821949e-03  1.5498416257966252e-01  9.1834978881598847e-03  9.0305303413199395e-02  7.0670389466506181e-02  1.5985815063053974e-01  5.2477810873020156e-02  -1.1018684017670831e-01  -1.9683910465994992e-01  -1.9853805276664027e-01  -1.7692862139992421e-01  -8.9756757907071480e-02  -1.0344967096749079e-02  -9.1995294039499159e-02  4.3588438187963413e-01  5.4291992488684138e-01  6.6559490978341129e-01  8.3016916269047447e-01  1.0428809783232200e+00  9.8722882158692771e-01  7.6377674443166355e-01  4.0463977822570180e-01  6.9076078006947805e-01  -6.9567527903842977e-02  -4.3639570525858490e-01  -3.9031132845042471e-01  -6.9916350007120909e-01  -1.0524570808933695e+00  -1.0065356608123988e+00  -8.3963951361436906e-01  -6.5918054403934256e-01  -6.5799601611375158e-01  -6.1810190555042133e-01  -9.1995294039499159e-02  -7.2269521206799345e-02  3.9056686269358221e-01  1.2990092450573393e-01  3.0524636135458975e-02  8.0111798787990102e-02  1.3885170530885485e-01  1.1097796847183369e-01  -2.3441333789872953e-02  -1.2974609211182458e-01  7.0382881243105211e-01  -1.5140487745590556e-01  -5.4327040774417468e-01  -1.2957213198051665e-01  -1.5534899302251479e-01  -1.4226642737230974e-01  -1.2272667681365122e-01  -1.4325020506519898e-01  -7.9170047909370683e-02  -1.2275015238113421e-01  -4.4461446913171043e-01  -7.2269521206799345e-02  -1.6180948293868133e-01  6.9999747382192723e-01  1.5584882292264263e-01  4.7613762729660544e-02  2.4435205527812287e-01  2.2735748141533105e-01  9.7796058211702758e-02  7.9999551241517614e-02  -3.6700071763283292e-02  7.9747451417684179e-01  -1.3411719904714750e-01  -6.6621203389319550e-01  -3.0672359196141939e-02  -4.7571546939378581e-02  -1.5951300608953162e-01  -2.8920802493607706e-01  -2.5492922679207969e-01  -1.5058175931938958e-01  -1.1634616226456508e-01  -7.1709274715308968e-01  -1.6180948293868133e-01  -5.3782071079342950e-02  1.0532618969265728e+00  1.4259600894735769e-01  1.5969562661521644e-01  2.6641168360377343e-01  3.1517400744521612e-01  3.7208201312182065e-01  2.8230923517955014e-01  -4.9499619942528425e-03  8.3788423006551560e-01  -2.6902974825898048e-02  -8.3080228485842100e-01  -8.0110835309008560e-02  -2.4431315737970660e-01  -2.6646802103642925e-01  -2.9211340305551875e-01  -2.5842315337614158e-01  -1.7285308544978842e-01  -6.8711719403230943e-03  -9.7458122302149341e-01  -5.3782071079342950e-02  1.0987849253335705e-01  1.0068391215273247e+00  1.2265244157854381e-01  2.8893561145727459e-01  2.9208069032424960e-01  4.0626544266266712e-01  4.9325492399254939e-01  2.3510556484831227e-01  4.8987669447463994e-02  9.2134850216074282e-01  1.8881172618417769e-01  -1.0431091047113299e+00  -1.3871602234079661e-01  -2.2712979635291380e-01  -3.1511767739792901e-01  -4.0604580944897989e-01  -4.0387880957202632e-01  -2.4874650204763626e-01  3.6959645342554796e-02  -1.1459727531421402e+00  1.0987849253335705e-01  1.9699810441782639e-01  8.3948204917557390e-01  1.4295896818535922e-01  2.5483251333197077e-01  2.5845597660535247e-01  4.0434625632081866e-01  3.3715238235094397e-01  6.5656564079071958e-02  9.5366663847297362e-02  9.2927426962279613e-01  2.5020235086023168e-01  -9.8708013835163999e-01  -1.1051551421910955e-01  -9.7710222271233299e-02  -3.7193775318725597e-01  -4.9267694804905043e-01  -3.3687215877888527e-01  -1.9817813927923905e-01  1.3157391277288573e-02  -1.1203995979519523e+00  1.9699810441782639e-01  1.9865547151443047e-01  6.5888276570264059e-01  7.8977475644035747e-02  1.5029616952431774e-01  1.7268934615367995e-01  2.4888498343840457e-01  1.9847784887405565e-01  4.1427849200102861e-02  1.3281690551170228e-01  7.2148472313177980e-01  6.7302844369001330e-02  -7.6364140529591384e-01  2.4021860517168373e-02  -8.0273736553854322e-02  -2.818800983869