<?xml version="1.0"?>
<VTKFile type="UnstructuredGrid"  version="0.1"  >
<UnstructuredGrid>
<Piece  NumberOfPoints="9261" NumberOfCells="48000">
<Points>
<DataArray  type="Float64"  NumberOfComponents="3"  format="ascii">-3.141592653589793 -3.141592653589793 -3.141592653589793  -2.827433388230814 -3.141592653589793 -3.141592653589793  -2.513274122871834 -3.141592653589793 -3.141592653589793  -2.199114857512855 -3.141592653589793 -3.141592653589793  -1.884955592153876 -3.141592653589793 -3.141592653589793  -1.570796326794897 -3.141592653589793 -3.141592653589793  -1.256637061435917 -3.141592653589793 -3.141592653589793  -0.9424777960769379 -3.141592653589793 -3.141592653589793  -0.6283185307179586 -3.141592653589793 -3.141592653589793  -0.3141592653589793 -3.141592653589793 -3.141592653589793  0 -3.141592653589793 -3.141592653589793  0.3141592653589789 -3.141592653589793 -3.141592653589793  0.6283185307179586 -3.141592653589793 -3.141592653589793  0.9424777960769379 -3.141592653589793 -3.141592653589793  1.256637061435917 -3.141592653589793 -3.141592653589793  1.570796326794897 -3.141592653589793 -3.141592653589793  1.884955592153876 -3.141592653589793 -3.141592653589793  2.199114857512855 -3.141592653589793 -3.141592653589793  2.513274122871834 -3.141592653589793 -3.141592653589793  2.827433388230814 -3.141592653589793 -3.141592653589793  3.141592653589793 -3.141592653589793 -3.141592653589793  -3.141592653589793 -2.827433388230814 -3.141592653589793  -2.827433388230814 -2.827433388230814 -3.141592653589793  -2.513274122871834 -2.827433388230814 -3.141592653589793  -2.199114857512855 -2.827433388230814 -3.141592653589793  -1.884955592153876 -2.827433388230814 -3.141592653589793  -1.570796326794897 -2.827433388230814 -3.141592653589793  -1.256637061435917 -2.827433388230814 -3.141592653589793  -0.9424777960769379 -2.827433388230814 -3.141592653589793  -0.6283185307179586 -2.827433388230814 -3.141592653589793  -0.3141592653589793 -2.827433388230814 -3.141592653589793  0 -2.827433388230814 -3.141592653589793  0.3141592653589789 -2.827433388230814 -3.141592653589793  0.6283185307179586 -2.827433388230814 -3.141592653589793  0.9424777960769379 -2.827433388230814 -3.141592653589793  1.256637061435917 -2.827433388230814 -3.141592653589793  1.570796326794897 -2.827433388230814 -3.141592653589793  1.884955592153876 -2.827433388230814 -3.141592653589793  2.199114857512855 -2.827433388230814 -3.141592653589793  2.513274122871834 -2.827433388230814 -3.141592653589793  2.827433388230814 -2.827433388230814 -3.141592653589793  3.141592653589793 -2.827433388230814 -3.141592653589793  -3.141592653589793 -2.513274122871834 -3.141592653589793  -2.827433388230814 -2.513274122871834 -3.141592653589793  -2.513274122871834 -2.513274122871834 -3.141592653589793  -2.199114857512855 -2.513274122871834 -3.141592653589793  -1.884955592153876 -2.513274122871834 -3.141592653589793  -1.570796326794897 -2.513274122871834 -3.141592653589793  -1.256637061435917 -2.513274122871834 -3.141592653589793  -0.9424777960769379 -2.513274122871834 -3.141592653589793  -0.6283185307179586 -2.513274122871834 -3.141592653589793  -0.3141592653589793 -2.513274122871834 -3.141592653589793  0 -2.513274122871834 -3.141592653589793  0.3141592653589789 -2.513274122871834 -3.141592653589793  0.6283185307179586 -2.513274122871834 -3.141592653589793  0.9424777960769379 -2.513274122871834 -3.141592653589793  1.256637061435917 -2.513274122871834 -3.141592653589793  1.570796326794897 -2.513274122871834 -3.141592653589793  1.884955592153876 -2.513274122871834 -3.141592653589793  2.199114857512855 -2.513274122871834 -3.141592653589793  2.513274122871834 -2.513274122871834 -3.141592653589793  2.827433388230814 -2.513274122871834 -3.141592653589793  3.141592653589793 -2.513274122871834 -3.141592653589793  -3.141592653589793 -2.199114857512855 -3.141592653589793  -2.827433388230814 -2.199114857512855 -3.141592653589793  -2.513274122871834 -2.199114857512855 -3.141592653589793  -2.199114857512855 -2.199114857512855 -3.141592653589793  -1.884955592153876 -2.199114857512855 -3.141592653589793  -1.570796326794897 -2.199114857512855 -3.141592653589793  -1.256637061435917 -2.199114857512855 -3.141592653589793  -0.9424777960769379 -2.199114857512855 -3.141592653589793  -0.6283185307179586 -2.199114857512855 -3.141592653589793  -0.3141592653589793 -2.199114857512855 -3.141592653589793  0 -2.199114857512855 -3.141592653589793  0.3141592653589789 -2.199114857512855 -3.141592653589793  0.6283185307179586 -2.199114857512855 -3.141592653589793  0.9424777960769379 -2.199114857512855 -3.141592653589793  1.256637061435917 -2.199114857512855 -3.141592653589793  1.570796326794897 -2.199114857512855 -3.141592653589793  1.884955592153876 -2.199114857512855 -3.141592653589793  2.199114857512855 -2.199114857512855 -3.141592653589793  2.513274122871834 -2.199114857512855 -3.141592653589793  2.827433388230814 -2.199114857512855 -3.141592653589793  3.141592653589793 -2.199114857512855 -3.141592653589793  -3.141592653589793 -1.884955592153876 -3.141592653589793  -2.827433388230814 -1.884955592153876 -3.141592653589793  -2.513274122871834 -1.884955592153876 -3.141592653589793  -2.199114857512855 -1.884955592153876 -3.141592653589793  -1.884955592153876 -1.884955592153876 -3.141592653589793  -1.570796326794897 -1.884955592153876 -3.141592653589793  -1.256637061435917 -1.884955592153876 -3.141592653589793  -0.9424777960769379 -1.884955592153876 -3.141592653589793  -0.6283185307179586 -1.884955592153876 -3.141592653589793  -0.3141592653589793 -1.884955592153876 -3.141592653589793  0 -1.884955592153876 -3.141592653589793  0.3141592653589789 -1.884955592153876 -3.141592653589793  0.6283185307179586 -1.884955592153876 -3.141592653589793  0.9424777960769379 -1.884955592153876 -3.141592653589793  1.256637061435917 -1.884955592153876 -3.141592653589793  1.570796326794897 -1.884955592153876 -3.141592653589793  1.884955592153876 -1.884955592153876 -3.141592653589793  2.199114857512855 -1.884955592153876 -3.141592653589793  2.513274122871834 -1.884955592153876 -3.141592653589793  2.827433388230814 -1.884955592153876 -3.141592653589793  3.141592653589793 -1.884955592153876 -3.141592653589793  -3.141592653589793 -1.570796326794897 -3.141592653589793  -2.827433388230814 -1.570796326794897 -3.141592653589793  -2.513274122871834 -1.570796326794897 -3.141592653589793  -2.199114857512855 -1.570796326794897 -3.141592653589793  -1.884955592153876 -1.570796326794897 -3.141592653589793  -1.570796326794897 -1.570796326794897 -3.141592653589793  -1.256637061435917 -1.570796326794897 -3.141592653589793  -0.9424777960769379 -1.570796326794897 -3.141592653589793  -0.6283185307179586 -1.570796326794897 -3.141592653589793  -0.3141592653589793 -1.570796326794897 -3.141592653589793  0 -1.570796326794897 -3.141592653589793  0.3141592653589789 -1.570796326794897 -3.141592653589793  0.6283185307179586 -1.570796326794897 -3.141592653589793  0.9424777960769379 -1.570796326794897 -3.141592653589793  1.256637061435917 -1.570796326794897 -3.141592653589793  1.570796326794897 -1.570796326794897 -3.141592653589793  1.884955592153876 -1.570796326794897 -3.141592653589793  2.199114857512855 -1.570796326794897 -3.141592653589793  2.513274122871834 -1.570796326794897 -3.141592653589793  2.827433388230814 -1.570796326794897 -3.141592653589793  3.141592653589793 -1.570796326794897 -3.141592653589793  -3.141592653589793 -1.256637061435917 -3.141592653589793  -2.827433388230814 -1.256637061435917 -3.141592653589793  -2.513274122871834 -1.256637061435917 -3.141592653589793  -2.199114857512855 -1.256637061435917 -3.141592653589793  -1.884955592153876 -1.256637061435917 -3.141592653589793  -1.570796326794897 -1.256637061435917 -3.141592653589793  -1.256637061435917 -1.256637061435917 -3.141592653589793  -0.9424777960769379 -1.256637061435917 -3.141592653589793  -0.6283185307179586 -1.256637061435917 -3.141592653589793  -0.3141592653589793 -1.256637061435917 -3.141592653589793  0 -1.256637061435917 -3.141592653589793  0.3141592653589789 -1.256637061435917 -3.141592653589793  0.6283185307179586 -1.256637061435917 -3.141592653589793  0.9424777960769379 -1.256637061435917 -3.141592653589793  1.256637061435917 -1.256637061435917 -3.141592653589793  1.570796326794897 -1.256637061435917 -3.141592653589793  1.884955592153876 -1.256637061435917 -3.141592653589793  2.199114857512855 -1.256637061435917 -3.141592653589793  2.513274122871834 -1.256637061435917 -3.141592653589793  2.827433388230814 -1.256637061435917 -3.141592653589793  3.141592653589793 -1.256637061435917 -3.141592653589793  -3.141592653589793 -0.9424777960769379 -3.141592653589793  -2.827433388230814 -0.9424777960769379 -3.141592653589793  -2.513274122871834 -0.9424777960769379 -3.141592653589793  -2.199114857512855 -0.9424777960769379 -3.141592653589793  -1.884955592153876 -0.9424777960769379 -3.141592653589793  -1.570796326794897 -0.9424777960769379 -3.141592653589793  -1.256637061435917 -0.9424777960769379 -3.141592653589793  -0.9424777960769379 -0.9424777960769379 -3.141592653589793  -0.6283185307179586 -0.9424777960769379 -3.141592653589793  -0.3141592653589793 -0.9424777960769379 -3.141592653589793  0 -0.9424777960769379 -3.141592653589793  0.3141592653589789 -0.9424777960769379 -3.141592653589793  0.6283185307179586 -0.9424777960769379 -3.141592653589793  0.9424777960769379 -0.9424777960769379 -3.141592653589793  1.256637061435917 -0.9424777960769379 -3.141592653589793  1.570796326794897 -0.9424777960769379 -3.141592653589793  1.884955592153876 -0.9424777960769379 -3.141592653589793  2.199114857512855 -0.9424777960769379 -3.141592653589793  2.513274122871834 -0.9424777960769379 -3.141592653589793  2.827433388230814 -0.9424777960769379 -3.141592653589793  3.141592653589793 -0.9424777960769379 -3.141592653589793  -3.141592653589793 -0.6283185307179586 -3.141592653589793  -2.827433388230814 -0.6283185307179586 -3.141592653589793  -2.513274122871834 -0.6283185307179586 -3.141592653589793  -2.19
[...]
<PointData  Scalars="f_33124"> 
<DataArray  type="Float64"  Name="f_33124"  format="ascii">7.5515379019518644e-02  7.6403397736075740e-02  -5.1709838982174759e-02  -5.0342841039898258e-02  -4.0776184850676448e-03  3.2774302391169644e-02  5.3429033957038512e-02  5.5779911461574301e-02  3.1440224880826435e-02  -2.6763760370772095e-02  -7.5726157163372984e-02  -2.7261285801924495e-02  3.0696371663316839e-02  5.4792939017219357e-02  5.2332144680201954e-02  3.1673576366020459e-02  -5.1909117867289696e-03  -5.1471275049925616e-02  -5.2536053253917345e-02  7.5973055139788886e-02  7.5515379019518644e-02  2.6640590005998860e-02  -2.7508289850309781e-01  -6.0585024597842452e-01  -7.0227219798067564e-01  -5.7592152512640282e-01  -4.5319195639766841e-01  -3.8446859884220708e-01  -3.5751444524804077e-01  -3.9098785580462625e-01  -3.7892735241407538e-01  -7.5746732793611812e-02  2.7504533471724174e-01  3.4223747202966326e-01  3.5903717511041910e-01  3.8257860192362791e-01  4.4869446762874171e-01  5.6121439742287560e-01  6.6118847261748914e-01  5.7267239896186406e-01  3.7885611056377277e-01  2.6640590005998860e-02  -3.1377862534663410e-02  -3.4263469521846823e-01  -5.4266435513185429e-01  -5.7777133979090023e-01  -3.7511335576641486e-01  -2.5115787134054579e-01  -2.1428357855964131e-01  -2.6459467785767488e-01  -6.0359871584877178e-01  -5.7245069135632809e-01  5.3499427825055776e-02  6.0612626802278313e-01  5.4151210460035260e-01  3.0203017137672855e-01  2.4235439725224550e-01  3.0533598699147441e-01  4.4446451146860311e-01  6.4489286904096987e-01  6.0263316727624494e-01  3.9078854242726402e-01  -3.1377862534663410e-02  -5.5264975178389422e-02  -3.5937343645991104e-01  -3.0285417593826619e-01  -1.7498067353566230e-01  -1.2571571996535111e-01  -1.7400599798899258e-01  -1.1953851310340663e-01  -1.1664873206017672e-01  -6.4596990244188823e-01  -6.6069225398264020e-01  5.2339198582566721e-02  7.0287603421903888e-01  5.7663286614411235e-01  1.7473925088999195e-01  1.2357745303521091e-01  1.4518079629852615e-01  1.2315368917950698e-01  1.1619842143123763e-01  2.6325795281447023e-01  3.5754325659814712e-01  -5.5264975178389422e-02  -5.2380714580882899e-02  -3.8284395004779365e-01  -2.4291799075922244e-01  -1.2350791151611971e-01  -1.7975012429643969e-01  -2.0042327414050962e-01  -1.4927923519205299e-01  -1.2328424440848036e-01  -4.4508566123691773e-01  -5.6062538709020338e-01  5.8791794983434151e-03  5.7654935923898087e-01  3.7420646974194050e-01  1.2595489098803206e-01  1.7979616771501555e-01  1.6464418278913204e-01  1.4945146921944383e-01  1.1981851529484758e-01  2.1314653952428128e-01  3.8477891069203946e-01  -5.2380714580882899e-02  -3.1286330052208010e-02  -4.4880443891521088e-01  -3.0621209806525651e-01  -1.4518357525949785e-01  -1.6473209236960867e-01  -1.4331464128533064e-01  -1.6477042619316512e-01  -1.4500631881987225e-01  -3.0564989023147066e-01  -4.4844054216079327e-01  -3.1186167751050226e-02  4.5367383575033560e-01  2.5014538257812108e-01  1.7437344852639500e-01  2.0056213513352295e-01  1.4328223894866673e-01  2.0071551317171987e-01  1.7419094491185572e-01  2.4993416941771118e-01  4.5357773148280156e-01  -3.1286330052208010e-02  6.1553478580607685e-03  -5.6099189204438749e-01  -4.4615022651058056e-01  -1.2317856173251482e-01  -1.4944695167237332e-01  -2.0075265704596326e-01  -1.7944736039857201e-01  -1.2311789671421650e-01  -2.4252592270207152e-01  -3.8247085049540769e-01  -5.2073503634882799e-02  3.8482655891718170e-01  2.1309744818847429e-01  1.1968019869739407e-01  1.4947732325696403e-01  1.6487659108973612e-01  1.7978222093133442e-01  1.2576890008277924e-01  3.7399670055432982e-01  5.7661164252104213e-01  6.1553478580607685e-03  5.2992734553784775e-02  -6.6007225199067354e-01  -6.4627193117649029e-01  -1.1648468285409501e-01  -1.1949230111218674e-01  -1.7383212981730392e-01  -1.2557494922685228e-01  -1.7491884487817105e-01  -3.0230137006707403e-01  -3.5886171900689723e-01  -5.4652637867493609e-02  3.5785591941139538e-01  2.6362490324065813e-01  1.1645640834386710e-01  1.2338429554099399e-01  1.4539157404441513e-01  1.2348391300075658e-01  1.7469766478931589e-01  5.7620043567348722e-01  7.0276952980026164e-01  5.2992734553784775e-02  5.3749989329907544e-02  -5.7135601229502531e-01  -6.0262193712071255e-01  -2.6417932069458994e-01  -2.1414440109172489e-01  -2.5110171990193492e-01  -3.7534652029145271e-01  -5.7741707802529407e-01  -5.4137153929805670e-01  -3.4200631951194138e-01  -3.0654127776255789e-02  3.9118277531515588e-01  6.0277185424231905e-01  6.4535723074227880e-01  4.4471476046724612e-01  3.0539533344834124e-01  2.4223100953409935e-01  3.0185487223702512e-01  5.4067416719122574e-01  6.0524297175824171e-01  5.3749989329907544e-02  -7.5886163934705070e-02  -3.7833271646469235e-01  -3.9029750433981181e-01  -3.5710553011475715e-01  -3.8428811632511717e-01  -4.5313149550751064e-01  -5.7601765918246461e-01  -7.0221923367068362e-01  -6.0532623404026620e-01  -2.7484653467267306e-01  2.6924923762144878e-02  3.7856862538655756e-01  5.7201004338891237e-01  6.6084692405086487e-01  5.6101906047867556e-01  4.4862513025789191e-01  3.8249488532380388e-01  3.5877842664782078e-01  3.4171791025690756e-01  2.7433355290839961e-01  -7.5886163934705070e-02  -7.5811873051246759e-02  -2.6897412836900059e-02  3.1310251528735893e-02  5.5481625487358008e-02  5.2977827101746415e-02  3.2242141523962944e-02  -4.8087519176638624e-03  -5.1400509700440689e-02  -5.2816622656911949e-02  7.5731386037240930e-02  7.5119131239128389e-02  7.5276139968779882e-02  -5.3273606369486776e-02  -5.1820026115741359e-02  -5.3336646123028275e-03  3.1656644941785765e-02  5.2407680378090196e-02  5.4886046590145093e-02  3.0749665577524437e-02  -2.7229169260341593e-02  -7.5811873051246759e-02  -7.7388537341588404e-02  2.7443136218790026e-01  3.4242298569594309e-01  3.5930654826632685e-01  3.8284416157859164e-01  4.4894051302585758e-01  5.6139847113532415e-01  6.6085686843060998e-01  5.7184552398260802e-01  3.7843836309237666e-01  2.6466234063126138e-02  -2.7544274336792751e-01  -6.0588568528794107e-01  -7.0289176697818823e-01  -5.7683561558412133e-01  -4.5386279214949765e-01  -3.8504416250025492e-01  -3.5788409615979683e-01  -3.9104377982246674e-01  -3.7992213368568312e-01  -7.7388537341588404e-02  5.1309230711967031e-02  6.0558725565056926e-01  5.4224280794075996e-01  3.0231420663454728e-01  2.4219422808390945e-01  3.0518144899868249e-01  4.4481360968861805e-01  6.4560632392190409e-01  6.0280150415776512e-01  3.9074993994547669e-01  -3.1278999786257436e-02  -3.4237227670814147e-01  -5.4087667821992536e-01  -5.7640475199787788e-01  -3.7439942607516757e-01  -2.5028189018702646e-01  -2.1339658303838968e-01  -2.6278945244074370e-01  -6.0137845469801943e-01  -5.7386550288125970e-01  5.1309230711967031e-02  5.0880621854255605e-02  7.0254737650595633e-01  5.7735865543526055e-01  1.7485172325546811e-01  1.2336798813474184e-01  1.4523899597286646e-01  1.2334314173393678e-01  1.1648749111723637e-01  2.6386278741192032e-01  3.5733092032974112e-01  -5.5238620504492887e-02  -3.5916334361386626e-01  -3.0156169717516529e-01  -1.7424163532807116e-01  -1.2532604075084053e-01  -1.7386032357051190e-01  -1.1980943439612807e-01  -1.1580278809211128e-01  -6.4361014636985503e-01  -6.6218771336194271e-01  5.0880621854255605e-02  4.9799217980599792e-03  5.7631815057726321e-01  3.7448724734788730e-01  1.2578797580914794e-01  1.7990123136735384e-01  1.6476955856758496e-01  1.4966465359631229e-01  1.1982848211874128e-01  2.1358190390600976e-01  3.8440471881088234e-01  -5.2559355030989172e-02  -3.8280620709438629e-01  -2.4220128869444754e-01  -1.2311121658739625e-01  -1.7936966838812388e-01  -2.0033450240058859e-01  -1.4944661334106180e-01  -1.2304868121651887e-01  -4.4374362860748662e-01  -5.6170204297271653e-01  4.9799217980599792e-03  -3.1796067383451296e-02  4.5348738327169041e-01  2.5038486268785703e-01  1.7418117833811708e-01  2.0043324863971643e-01  1.4330001234125023e-01  2.0092837284780340e-01  1.7431662609066598e-01  2.5055369354568990e-01  4.5313765058615318e-01  -3.1705197111354201e-02  -4.4899031022649344e-01  -3.0529636251706083e-01  -1.4487453384636784e-01  -1.6454930429872153e-01  -1.4320691137846508e-01  -1.6481800496454432e-01  -1.4500641855816859e-01  -3.0494121974440591e-01  -4.4899832070806450e-01  -3.1796067383451296e-02  -5.2453609864994089e-02  3.8466753566185286e-01  2.1336939855362486e-01  1.1976507230801797e-01  1.4952528347885205e-01  1.6506021786598715e-01  1.7994306444636496e-01  1.2603385777755741e-01  3.7498324568447555e-01  5.7583399858488904e-01  5.2981701516393708e-03  -5.6142686615361836e-01  -4.4451392997784311e-01  -1.2310527394944058e-01  -1.4951530437201771e-01  -2.0058530184985218e-01  -1.7952206176815991e-01  -1.2320829200623740e-01  -2.4208866819820699e-01  -3.8280528286563381e-01  -5.2453609864994089e-02  -5.4848996979932549e-02  3.5764196780566593e-01  2.6357735973024560e-01  1.1645385537146445e-01  1.2333679503768953e-01  1.4543311703200532e-01  1.2363035966567180e-01  1.7538469701425860e-01  5.7745863979395418e-01  7.0170378613395534e-01  5.1499324242241858e-02  -6.6112187673439937e-01  -6.4446923190466365e-01  -1.1614385086683990e-01  -1.1988976016895396e-01  -1.7380940196197212e-01  -1.2543115247377615e-01  -1.7456960893709744e-01  -3.0190635331864452e-01  -3.5921733808573086e-01  -5.4848996979932549e-02  -3.0693776992353840e-02  3.9101817231364899e-01  6.0255726329058112e-01  6.4489628512460240e-01  4.4414946002096878e-01  3.0503842781368418e-01  2.4212051003492593e-01  3.0231265303065047e-01  5.4171322096052521e-01  6.0470592056493633e-01  5.1947020579113885e-02  -5.7277730384431325e-01  -6.0177231273577358e-01  -2.6328602240265453e-01  -2.1388196851001809e-01  -2.5076411343034843e-01  -3.7486480590104648e-01  -5.7689352830460616e-01  -5.4139848069966501e-01  -3.4235760560958212e-01  -3.0693776992353840e-02  2.7065615553410784e-02  3.7911403500499469e-01  5.7303113533753369e-01  6.6158726036556792e-01  5.6128760896710328e-01  4.4869020576513702e-01  3.8262810284560567e-01  3.5913990224647574e-01  3.4223499774609795e-01  2.7421497935051464e-01  -7.7174556593127552e-02  -3.7969919545738140e-01  -3.9107983864328960e-01  -3.5777338117336066e-01  -3.8491567394442316e-01  -4.5369416574990334e-01  -5.7646203107501104e-01  -7.0242938939240895e-01  -6.0557879243231283e-01  -2.7500961064846735e-01  2.7065615553410784e-02  7.5515379019518644e-02  7.6403397736075740e-02  -5.1709838982174759e-02  -5.0342841039898258e-02  -4.0776184850676448e-03  3.2774302391169644e-02  5.3429033957038512e-02  5.5779911461574301e-02  3.1440224880826435e-02  -2.6763760370772095e-02  -7.5726157163372984e-02  -2.7261285801924495e-02  3.0696371663316839e-02  5.4792939017219357e-02  5.2332144680201954e-02  3.1673576366020459e-02  -5.1909117867289696e-03  -5.1471275049925616e-02  -5.2536053253917345e-02  7.5973055139788886e-02  7.5515379019518644e-02  8.9748789714907018e-02  1.1292686492625109e-01  4.5967188884800704e-02  -5.7714865828356852e-03  -3.2929743300831114e-02  -3.7532299904006819e-02  -3.9668771319579521e-02  -7.0936032813902775e-02  -1.0307830495091939e-01  -1.2207180448277836e-01  -8.9786314078218271e-02  -1.6606306423658079e-02  5.7807540855696130e-02  9.2243813445302497e-02  1.1872200031508347e-01  1.2844356547511321e-01  6.8610970906319596e-02  -5.1581854200585052e-02  -1.5059492786764223e-01  -3.3298627441623145e-02  8.9748789714907018e-02  1.6213164474136028e-02  -1.3901410865320085e-01  -3.5492819297805711e-01  -5.0865655937427867e-01  -5.1847442118817300e-01  -4.5092314092078084e-01  -3.9496294942928661e-01  -4.4265464230552559e-01  -4.7080283886531349e-01  -3.6841029604444520e-01  -1.1249684060843798e-01  1.3935297552511849e-01  2.4873173647767644e-01  3.0141235496866703e-01  3.2293337355964002e-01  3.5941457817659644e-01  4.9053598001686877e-01  5.6801233929349426e-01  3.8510971321367038e-01  2.6729372302072402e-01  1.6213164474136028e-02  -5.8107367157331329e-02  -2.4883410222194899e-01  -4.6860382717633220e-01  -6.0690496720152176e-01  -4.7720752037444414e-01  -3.1968671312536379e-01  -2.4915991951149974e-01  -3.5383259983405974e-01  -5.5651001079084494e-01  -5.0886895783029773e-01  -4.4857165455719751e-02  3.5538427670056860e-01  4.6793924139457949e-01  4.0862347462012932e-01  2.5950148021397818e-01  2.1198795958762398e-01  3.7164094267666475e-01  6.5860234127620843e-01  6.1008508362130420e-01  3.7972352184975994e-01  -5.8107367157331329e-02  -9.2532061997444501e-02  -3.0185914007992626e-01  -4.0949717306621425e-01  -3.7208741329406481e-01  -2.0093753300537465e-01  -1.5380634737962801e-01  -1.5410760454409170e-01  -1.5921985273107628e-01  -5.2596188781901265e-01  -6.3543017982082628e-01  7.3865513070724628e-03  5.0928477670619099e-01  6.0598272901668282e-01  3.7134566094208415e-01  2.0583608042261381e-01  1.6932582995994080e-01  1.9654983686524705e-01  1.8941983239651908e-01  2.9848102499716644e-01  3.8914154632085163e-01  -9.2532061997444501e-02  -1.1898408649763274e-01  -3.2354821176776993e-01  -2.6003277644462891e-01  -2.0590687113352626e-01  -1.7007842081352212e-01  -2.1088923997532924e-01  -2.4640094132547197e-01  -1.9107892246831859e-01  -3.4945675945304705e-01  -5.9692467996204990e-01  3.4793696529088453e-02  5.1905735383268969e-01  4.7631510924925546e-01  2.0066318098520475e-01  1.7008797534115211e-01  1.7829180813524265e-01  2.7971758833126215e-01  2.0149744549351731e-01  1.0833057611506598e-01  3.5969511999506371e-01  -1.1898408649763274e-01  -1.2842164456489663e-01  -3.6002979690882503e-01  -2.1254971184584076e-01  -1.6920790796902624e-01  -1.7824424384317827e-01  -2.6487377583435928e-01  -3.6900705819434215e-01  -1.9595285405037258e-01  -2.3581522469456503e-01  -5.4267086200304737e-01  3.9564886582176238e-02  4.5107683210841670e-01  3.1878990780813665e-01  1.5377165043364271e-01  2.1112833574726159e-01  2.6499448681750509e-01  4.0825079310920137e-01  3.7816979712056875e-01  1.8326929479603374e-01  3.7904089447427103e-01  -1.2842164456489663e-01  -6.8071104853569611e-02  -4.9094797910153826e-01  -3.7263578244411766e-01  -1.9612659719589154e-01  -2.7949836081333784e-01  -4.0847191071321609e-01  -4.0793838817697264e-01  -1.1562438379230471e-01  -2.0854726109046876e-01  -5.0642764004463958e-01  4.1796943033980523e-02  3.9480987695196712e-01  2.4833770773936950e-01  1.5408510459917468e-01  2.4646871764942421e-01  3.6857523777348850e-01  4.0780630886924252e-01  2.7195711060830496e-01  2.7471103956982995e-01  5.1177468044219687e-01  -6.8071104853569611e-02  5.2409778337033724e-02  -5.6752669587087978e-01  -6.5957823841618501e-01  -1.8974863720282351e-01  -2.0062448831998392e-01  -3.7769838164690395e-01  -2.7165258417881527e-01  -1.6564286426137723e-01  -3.0066274494266465e-01  -4.4312218208841558e-01  7.2843651804011672e-02  4.4291759859409269e-01  3.5325808790988777e-01  1.5937178481925418e-01  1.9112846029929298e-01  1.9603058929787687e-01  1.1573635559635473e-01  1.6567578197787278e-01  4.4264502920866722e-01  6.2445609100219956e-01  5.2409778337033724e-02  1.5111282143666352e-01  -3.8396057728398370e-01  -6.0980352509001468e-01  -2.9921503964617868e-01  -1.0864424099815272e-01  -1.8329819209139539e-01  -2.7515910319146980e-01  -4.4298136633836344e-01  -4.5629149640832833e-01  -3.9023876633236043e-01  1.0437695139870037e-01  4.7090824048639524e-01  5.5564597091881429e-01  5.2573126973966755e-01  3.4935516359136237e-01  2.3555189202037535e-01  2.0824919092428296e-01  3.0084439070350338e-01  4.5666692035034351e-01  5.3171022163967929e-01  1.5111282143666352e-01  3.3405815795912487e-02  -2.6699834189647859e-01  -3.7963826727158978e-01  -3.8924079951651080e-01  -3.5991726132451018e-01  -3.7923854428365927e-01  -5.1176410556839136e-01  -6.2452118023137082e-01  -5.3192716159254105e-01  -3.1828334318991269e-01  1.2240147033249173e-01  3.6782594711275207e-01  5.0803708925949498e-01  6.3526286185105763e-01  5.9716798546529049e-01  5.4289131330476870e-01  5.0695633813475205e-01  4.4387976765255932e-01  3.9069824502736800e-01  3.1822389596682515e-01  3.3405815795912487e-02  -9.0321059917455898e-02  -1.6676311936935417e-02  5.7891626229672068e-02  9.2636064752560379e-02  1.1931309325568516e-01  1.2901960073420909e-01  6.8960637104069120e-02  -5.1648582908939103e-02  -1.5096562791439461e-01  -3.3357412361228252e-02  8.9264679153884682e-02  1.1204620328979670e-01  4.4946675015346098e-02  -6.8043535486663996e-03  -3.4073380983503238e-02  -3.8806760256150402e-02  -4.0851148924983600e-02  -7.2079924369844006e-02  -1.0413990041434032e-01  -1.2293576286954908e-01  -9.0321059917455898e-02  -1.1351688634167240e-01  1.3894704291931750e-01  2.4898249752616455e-01  3.0175518391522305e-01  3.2315424438687423e-01  3.5962158672604388e-01  4.9079768661799095e-01  5.6802491656189835e-01  3.8463093923495056e-01  2.6710762991518583e-01  1.5555945246655097e-02  -1.3941913228349795e-01  -3.5498521552882284e-01  -5.0902077666588241e-01  -5.1916209987402218e-01  -4.5133797438131701e-01  -3.9486842256686300e-01  -4.4251238422082761e-01  -4.7110997579954467e-01  -3.6922630461192302e-01  -1.1351688634167240e-01  -4.6273211875880335e-02  3.5523771388673037e-01  4.6880809919441263e-01  4.0909351715549330e-01  2.5934713872447768e-01  2.1192833299054084e-01  3.7195151543339883e-01  6.5941170097545043e-01  6.1021908791574941e-01  3.7968442821974935e-01  -5.8828482996145008e-02  -2.4870994576960120e-01  -4.6755530569892723e-01  -6.0578216495551651e-01  -4.7664297303206121e-01  -3.1916011921426635e-01  -2.4855362649812535e-01  -3.5221742657077065e-01  -5.5499208981949233e-01  -5.0958773189423867e-01  -4.6273211875880335e-02  6.0800179520427095e-03  5.0935777078211752e-01  6.0683134409557105e-01  3.7142825446739813e-01  2.0522253933276710e-01  1.6882686793680846e-01  1.9627831458813691e-01  1.8961433806006761e-01  2.9904210567790368e-01  3.8905467322341597e-01  -9.3125072049003305e-02  -3.0150165384695982e-01  -4.0847580649531218e-01  -3.7125379182759716e-01  -2.0060019242718449e-01  -1.5372145581587629e-01  -1.5436964578083917e-01  -1.5864225010334285e-01  -5.2409332095536387e-01  -6.3635684633919309e-01  6.0800179520427095e-03  3.3854339033456554e-02  5.1915585678535336e-01  4.7656584536214053e-01  2.0033980679732105e-01  1.6971725635438292e-01  1.7817609517317556e-01  2.7970396122662844e-01  2.0119111034149798e-01  1.0857281677270643e-01  3.5978649439598120e-01  -1.1948790447362312e-01  -3.2311099765314122e-01  -2.5933424125239135e-01  -2.0536018317993346e-01  -1.6982412026803809e-01  -2.1098165692232920e-01  -2.4649130683244674e-01  -1.9105982736588983e-01  -3.4850446427786719e-01  -5.9767691748879404e-01  3.3854339033456554e-02  3.8878145534320160e-02  4.5119880410418350e-01  3.1883321895635036e-01  1.5377531953509041e-01  2.1129342287914651e-01  2.6495999922611285e-01  4.0864233804712480e-01  3.7798450855475685e-01  1.8326398264067281e-01  3.7907282416855337e-01  -1.2915327551303551e-01  -3.5976553135294542e-01  -2.1185197212865289e-01  -1.6884506998793020e-01  -1.7811896537354474e-01  -2.6470582704556167e-01  -3.6855774639779632e-01  -1.9587229347249568e-01  -2.3536766605985338e-01  -5.4316555863475646e-01  3.8878145534320160e-02  4.1179968417396975e-02  3.9489395287430457e-01  2.4837462708128788e-01  1.5433465595869622e-01  2.4665501869321432e-01  3.6894424806441029e-01  4.0801334708493581e-01  2.7212925741873062e-01  2.7508205885613018e-01  5.1149649027287647e-01  -6.9046346653015539e-02  -4.9098369890923715e-01  -3.7183332560099186e-01  -1.9611421146744670e-01  -2.7957493731671279e-01  -4.0810208743421134e-01  -4.0754174622330935e-01  -1.1543771184282932e-01  -2.0822450291138478e-01  -5.0692237933902728e-01  4.1179968417396975e-02  7.2290281389684519e-02  4.4262449831173600e-01  3.5303606437552193e-01  1.5922191672293662e-01  1.9125301842583736e-01  1.9623305163819060e-01  1.1610461119400109e-01  1.6620072578357531e-01  4.4317118677876005e-01  6.2405080637068611e-01  5.1336372132494944e-02  -5.6808327436735995e-01  -6.5865223504173809e-01  -1.8897586939636613e-01  -2.01176430432944