<?xml version="1.0"?>
<VTKFile type="UnstructuredGrid"  version="0.1"  >
<UnstructuredGrid>
<Piece  NumberOfPoints="9261" NumberOfCells="48000">
<Points>
<DataArray  type="Float64"  NumberOfComponents="3"  format="ascii">-3.141592653589793 -3.141592653589793 -3.141592653589793  -2.827433388230814 -3.141592653589793 -3.141592653589793  -2.513274122871834 -3.141592653589793 -3.141592653589793  -2.199114857512855 -3.141592653589793 -3.141592653589793  -1.884955592153876 -3.141592653589793 -3.141592653589793  -1.570796326794897 -3.141592653589793 -3.141592653589793  -1.256637061435917 -3.141592653589793 -3.141592653589793  -0.9424777960769379 -3.141592653589793 -3.141592653589793  -0.6283185307179586 -3.141592653589793 -3.141592653589793  -0.3141592653589793 -3.141592653589793 -3.141592653589793  0 -3.141592653589793 -3.141592653589793  0.3141592653589789 -3.141592653589793 -3.141592653589793  0.6283185307179586 -3.141592653589793 -3.141592653589793  0.9424777960769379 -3.141592653589793 -3.141592653589793  1.256637061435917 -3.141592653589793 -3.141592653589793  1.570796326794897 -3.141592653589793 -3.141592653589793  1.884955592153876 -3.141592653589793 -3.141592653589793  2.199114857512855 -3.141592653589793 -3.141592653589793  2.513274122871834 -3.141592653589793 -3.141592653589793  2.827433388230814 -3.141592653589793 -3.141592653589793  3.141592653589793 -3.141592653589793 -3.141592653589793  -3.141592653589793 -2.827433388230814 -3.141592653589793  -2.827433388230814 -2.827433388230814 -3.141592653589793  -2.513274122871834 -2.827433388230814 -3.141592653589793  -2.199114857512855 -2.827433388230814 -3.141592653589793  -1.884955592153876 -2.827433388230814 -3.141592653589793  -1.570796326794897 -2.827433388230814 -3.141592653589793  -1.256637061435917 -2.827433388230814 -3.141592653589793  -0.9424777960769379 -2.827433388230814 -3.141592653589793  -0.6283185307179586 -2.827433388230814 -3.141592653589793  -0.3141592653589793 -2.827433388230814 -3.141592653589793  0 -2.827433388230814 -3.141592653589793  0.3141592653589789 -2.827433388230814 -3.141592653589793  0.6283185307179586 -2.827433388230814 -3.141592653589793  0.9424777960769379 -2.827433388230814 -3.141592653589793  1.256637061435917 -2.827433388230814 -3.141592653589793  1.570796326794897 -2.827433388230814 -3.141592653589793  1.884955592153876 -2.827433388230814 -3.141592653589793  2.199114857512855 -2.827433388230814 -3.141592653589793  2.513274122871834 -2.827433388230814 -3.141592653589793  2.827433388230814 -2.827433388230814 -3.141592653589793  3.141592653589793 -2.827433388230814 -3.141592653589793  -3.141592653589793 -2.513274122871834 -3.141592653589793  -2.827433388230814 -2.513274122871834 -3.141592653589793  -2.513274122871834 -2.513274122871834 -3.141592653589793  -2.199114857512855 -2.513274122871834 -3.141592653589793  -1.884955592153876 -2.513274122871834 -3.141592653589793  -1.570796326794897 -2.513274122871834 -3.141592653589793  -1.256637061435917 -2.513274122871834 -3.141592653589793  -0.9424777960769379 -2.513274122871834 -3.141592653589793  -0.6283185307179586 -2.513274122871834 -3.141592653589793  -0.3141592653589793 -2.513274122871834 -3.141592653589793  0 -2.513274122871834 -3.141592653589793  0.3141592653589789 -2.513274122871834 -3.141592653589793  0.6283185307179586 -2.513274122871834 -3.141592653589793  0.9424777960769379 -2.513274122871834 -3.141592653589793  1.256637061435917 -2.513274122871834 -3.141592653589793  1.570796326794897 -2.513274122871834 -3.141592653589793  1.884955592153876 -2.513274122871834 -3.141592653589793  2.199114857512855 -2.513274122871834 -3.141592653589793  2.513274122871834 -2.513274122871834 -3.141592653589793  2.827433388230814 -2.513274122871834 -3.141592653589793  3.141592653589793 -2.513274122871834 -3.141592653589793  -3.141592653589793 -2.199114857512855 -3.141592653589793  -2.827433388230814 -2.199114857512855 -3.141592653589793  -2.513274122871834 -2.199114857512855 -3.141592653589793  -2.199114857512855 -2.199114857512855 -3.141592653589793  -1.884955592153876 -2.199114857512855 -3.141592653589793  -1.570796326794897 -2.199114857512855 -3.141592653589793  -1.256637061435917 -2.199114857512855 -3.141592653589793  -0.9424777960769379 -2.199114857512855 -3.141592653589793  -0.6283185307179586 -2.199114857512855 -3.141592653589793  -0.3141592653589793 -2.199114857512855 -3.141592653589793  0 -2.199114857512855 -3.141592653589793  0.3141592653589789 -2.199114857512855 -3.141592653589793  0.6283185307179586 -2.199114857512855 -3.141592653589793  0.9424777960769379 -2.199114857512855 -3.141592653589793  1.256637061435917 -2.199114857512855 -3.141592653589793  1.570796326794897 -2.199114857512855 -3.141592653589793  1.884955592153876 -2.199114857512855 -3.141592653589793  2.199114857512855 -2.199114857512855 -3.141592653589793  2.513274122871834 -2.199114857512855 -3.141592653589793  2.827433388230814 -2.199114857512855 -3.141592653589793  3.141592653589793 -2.199114857512855 -3.141592653589793  -3.141592653589793 -1.884955592153876 -3.141592653589793  -2.827433388230814 -1.884955592153876 -3.141592653589793  -2.513274122871834 -1.884955592153876 -3.141592653589793  -2.199114857512855 -1.884955592153876 -3.141592653589793  -1.884955592153876 -1.884955592153876 -3.141592653589793  -1.570796326794897 -1.884955592153876 -3.141592653589793  -1.256637061435917 -1.884955592153876 -3.141592653589793  -0.9424777960769379 -1.884955592153876 -3.141592653589793  -0.6283185307179586 -1.884955592153876 -3.141592653589793  -0.3141592653589793 -1.884955592153876 -3.141592653589793  0 -1.884955592153876 -3.141592653589793  0.3141592653589789 -1.884955592153876 -3.141592653589793  0.6283185307179586 -1.884955592153876 -3.141592653589793  0.9424777960769379 -1.884955592153876 -3.141592653589793  1.256637061435917 -1.884955592153876 -3.141592653589793  1.570796326794897 -1.884955592153876 -3.141592653589793  1.884955592153876 -1.884955592153876 -3.141592653589793  2.199114857512855 -1.884955592153876 -3.141592653589793  2.513274122871834 -1.884955592153876 -3.141592653589793  2.827433388230814 -1.884955592153876 -3.141592653589793  3.141592653589793 -1.884955592153876 -3.141592653589793  -3.141592653589793 -1.570796326794897 -3.141592653589793  -2.827433388230814 -1.570796326794897 -3.141592653589793  -2.513274122871834 -1.570796326794897 -3.141592653589793  -2.199114857512855 -1.570796326794897 -3.141592653589793  -1.884955592153876 -1.570796326794897 -3.141592653589793  -1.570796326794897 -1.570796326794897 -3.141592653589793  -1.256637061435917 -1.570796326794897 -3.141592653589793  -0.9424777960769379 -1.570796326794897 -3.141592653589793  -0.6283185307179586 -1.570796326794897 -3.141592653589793  -0.3141592653589793 -1.570796326794897 -3.141592653589793  0 -1.570796326794897 -3.141592653589793  0.3141592653589789 -1.570796326794897 -3.141592653589793  0.6283185307179586 -1.570796326794897 -3.141592653589793  0.9424777960769379 -1.570796326794897 -3.141592653589793  1.256637061435917 -1.570796326794897 -3.141592653589793  1.570796326794897 -1.570796326794897 -3.141592653589793  1.884955592153876 -1.570796326794897 -3.141592653589793  2.199114857512855 -1.570796326794897 -3.141592653589793  2.513274122871834 -1.570796326794897 -3.141592653589793  2.827433388230814 -1.570796326794897 -3.141592653589793  3.141592653589793 -1.570796326794897 -3.141592653589793  -3.141592653589793 -1.256637061435917 -3.141592653589793  -2.827433388230814 -1.256637061435917 -3.141592653589793  -2.513274122871834 -1.256637061435917 -3.141592653589793  -2.199114857512855 -1.256637061435917 -3.141592653589793  -1.884955592153876 -1.256637061435917 -3.141592653589793  -1.570796326794897 -1.256637061435917 -3.141592653589793  -1.256637061435917 -1.256637061435917 -3.141592653589793  -0.9424777960769379 -1.256637061435917 -3.141592653589793  -0.6283185307179586 -1.256637061435917 -3.141592653589793  -0.3141592653589793 -1.256637061435917 -3.141592653589793  0 -1.256637061435917 -3.141592653589793  0.3141592653589789 -1.256637061435917 -3.141592653589793  0.6283185307179586 -1.256637061435917 -3.141592653589793  0.9424777960769379 -1.256637061435917 -3.141592653589793  1.256637061435917 -1.256637061435917 -3.141592653589793  1.570796326794897 -1.256637061435917 -3.141592653589793  1.884955592153876 -1.256637061435917 -3.141592653589793  2.199114857512855 -1.256637061435917 -3.141592653589793  2.513274122871834 -1.256637061435917 -3.141592653589793  2.827433388230814 -1.256637061435917 -3.141592653589793  3.141592653589793 -1.256637061435917 -3.141592653589793  -3.141592653589793 -0.9424777960769379 -3.141592653589793  -2.827433388230814 -0.9424777960769379 -3.141592653589793  -2.513274122871834 -0.9424777960769379 -3.141592653589793  -2.199114857512855 -0.9424777960769379 -3.141592653589793  -1.884955592153876 -0.9424777960769379 -3.141592653589793  -1.570796326794897 -0.9424777960769379 -3.141592653589793  -1.256637061435917 -0.9424777960769379 -3.141592653589793  -0.9424777960769379 -0.9424777960769379 -3.141592653589793  -0.6283185307179586 -0.9424777960769379 -3.141592653589793  -0.3141592653589793 -0.9424777960769379 -3.141592653589793  0 -0.9424777960769379 -3.141592653589793  0.3141592653589789 -0.9424777960769379 -3.141592653589793  0.6283185307179586 -0.9424777960769379 -3.141592653589793  0.9424777960769379 -0.9424777960769379 -3.141592653589793  1.256637061435917 -0.9424777960769379 -3.141592653589793  1.570796326794897 -0.9424777960769379 -3.141592653589793  1.884955592153876 -0.9424777960769379 -3.141592653589793  2.199114857512855 -0.9424777960769379 -3.141592653589793  2.513274122871834 -0.9424777960769379 -3.141592653589793  2.827433388230814 -0.9424777960769379 -3.141592653589793  3.141592653589793 -0.9424777960769379 -3.141592653589793  -3.141592653589793 -0.6283185307179586 -3.141592653589793  -2.827433388230814 -0.6283185307179586 -3.141592653589793  -2.513274122871834 -0.6283185307179586 -3.141592653589793  -2.19
[...]
<PointData  Scalars="f_14244"> 
<DataArray  type="Float64"  Name="f_14244"  format="ascii">-1.7612881285779053e-01  1.1434639979954510e-01  -1.1739176235429712e-01  5.0087110733231084e-02  4.2368053665053931e-02  5.6505334010716828e-02  3.8778141011080763e-02  -1.5700300907124640e-01  -1.4944622361059656e-01  -1.9004355626428721e-01  1.7548663474099047e-01  -1.9158490845369480e-01  -1.5059156496746942e-01  -1.5807697915438615e-01  3.8091249370420945e-02  5.6003897555850710e-02  4.2094543145115335e-02  5.0149029604075961e-02  -1.1686500271849465e-01  1.1578110911579027e-01  -1.7612881285779053e-01  1.9073477794995120e-01  -2.0032806457307974e+00  -1.3567531771409986e+00  -1.0209804342423334e+00  -9.6604013280771539e-01  -9.8693108757612680e-01  -1.1565963060255577e+00  -1.3941456630688847e+00  -1.3738751600083128e+00  -2.2971356818731561e+00  -1.1515055233438652e-01  2.0031125034674919e+00  1.7663905927901715e+00  1.5181919237334207e+00  1.1090038418585642e+00  9.8761020643936859e-01  8.8950001264624012e-01  1.0268714269552861e+00  1.1101410929031250e+00  2.2966427651454655e+00  1.9073477794995120e-01  1.5046413047973473e-01  -1.7664725670054300e+00  -1.9260711287380294e-01  -5.1020085959142536e-02  -3.3547502068392134e-03  -1.7972594137221909e-02  -5.1977900050388499e-02  -1.7608843905970170e-01  -1.7302441247668340e-01  -1.1105945606643095e+00  1.1750569734004493e-01  1.3568730615182110e+00  1.9268371858850811e-01  1.2919304403695137e-01  -4.6032919082908243e-03  2.2629872551924793e-02  7.0421810576767087e-03  1.2216927528761827e-01  1.7283949699688805e-01  1.3734462736858064e+00  1.5046413047973473e-01  1.5815687472419165e-01  -1.5182079436246383e+00  -1.2916277961428640e-01  -1.8143310749675573e-01  -1.4302680608820309e-01  -1.6186387750282222e-01  -1.4995926386018152e-01  -2.1571035352598819e-01  -1.2224465228051597e-01  -1.0272991543728649e+00  -4.9468003478617600e-02  1.0206645839701447e+00  5.0988396321294989e-02  1.8147254595175474e-01  1.3907563313860277e-01  1.4344390412887725e-01  1.1837448278922884e-01  2.1563714484596172e-01  1.7577382625282420e-01  1.3935858429756758e+00  1.5815687472419165e-01  -3.7841334901048462e-02  -1.1090763874455591e+00  4.6752183624854974e-03  -1.3902407354500185e-01  -8.5884561476046520e-02  -8.7826716630156051e-02  -6.3893208427805576e-02  -1.1836584793458910e-01  -7.0432356773672605e-03  -8.8991715621363965e-01  -4.1391806397512373e-02  9.6548197385568668e-01  3.3865264212647136e-03  1.4309115495751606e-01  8.5945232539151137e-02  8.1045117533669622e-02  6.3966364910786389e-02  1.4998782856705034e-01  5.1831518110251606e-02  1.1560433614240309e+00  -3.7841334901048462e-02  -5.5660302491902548e-02  -9.8775158105085625e-01  -2.2530329141147658e-02  -1.4334295109121273e-01  -8.0948066787233749e-02  -9.3589908606285771e-02  -8.0934443551009663e-02  -1.4339103068548245e-01  -2.2594727649798443e-02  -9.8799026322743111e-01  -5.5230889228106574e-02  9.8625673061076724e-01  1.7986810344210413e-02  1.6187094647790121e-01  8.7908839817820494e-02  9.3651310960659442e-02  8.7863962390515499e-02  1.6187359861518466e-01  1.7900232303938880e-02  9.8642797456385634e-01  -5.5660302491902548e-02  -4.1670689500241234e-02  -8.8977703952819154e-01  -7.0117401124144326e-03  -1.1836104458010510e-01  -6.3899153133458592e-02  -8.7818149602923459e-02  -8.5859691208869826e-02  -1.3900757608140479e-01  4.6473413328014385e-03  -1.1093802393577386e+00  -3.7271336544886804e-02  1.1558512492159232e+00  5.1930317185444344e-02  1.5001106899387831e-01  6.4005432162035705e-02  8.1038426524412080e-02  8.5967876952493985e-02  1.4311039554456803e-01  3.3463087758540465e-03  9.6566497980402910e-01  -4.1670689500241234e-02  -4.9662908257662321e-02  -1.0271527087587407e+00  -1.2218760809826038e-01  -2.1563821938836672e-01  -1.4993015296989601e-01  -1.6181979154202220e-01  -1.4301764512778689e-01  -1.8137729444702280e-01  -1.2924586153503015e-01  -1.5185717651777275e+00  1.5906786102958434e-01  1.3933477797574985e+00  1.7585398405414610e-01  2.1568550260859781e-01  1.1842684180441378e-01  1.4346630328426072e-01  1.3908164977236803e-01  1.8145782256380188e-01  5.0942899202976705e-02  1.0208443466820543e+00  -4.9662908257662321e-02  1.1734159777638485e-01  -1.1105254715411785e+00  -1.7304130064761797e-01  -1.7598502516483372e-01  -5.2000168593280743e-02  -1.7970041232716959e-02  -3.3327137280648234e-03  -5.0889065099205925e-02  -1.9285354615241299e-01  -1.7665993027293450e+00  1.5137245606776339e-01  1.3731734146487453e+00  1.7285710159212733e-01  1.2218221973707037e-01  7.0879419384651879e-03  2.2678673275683143e-02  -4.5633477034701230e-03  1.2927095400053723e-01  1.9290126554620160e-01  1.3570061325551552e+00  1.1734159777638485e-01  -1.1533291193160881e-01  -2.2970590201529224e+00  -1.3738418744361973e+00  -1.3940532458429624e+00  -1.1564731174863190e+00  -9.8689582071433180e-01  -9.6606210970815320e-01  -1.0211757771486201e+00  -1.3572600259885510e+00  -2.0031651338211591e+00  1.9148205750403940e-01  2.2965700038745087e+00  1.1104954193968968e+00  1.0272461416443341e+00  8.8989881074599064e-01  9.8792546676857695e-01  1.1092737128171932e+00  1.5183497053630908e+00  1.7664745344972339e+00  2.0030649315661089e+00  -1.1533291193160881e-01  1.7536612475059860e-01  -1.8960137545805772e-01  -1.4920481158320995e-01  -1.5701899792077742e-01  3.8630767847465476e-02  5.6317568549596665e-02  4.2188828364028368e-02  5.0059247902315140e-02  -1.1710516811834627e-01  1.1525746960508564e-01  -1.7613035481046319e-01  1.1447739138174454e-01  -1.1766397603325887e-01  4.9568914480372324e-02  4.1675665813705014e-02  5.5624459884380542e-02  3.7684785281499954e-02  -1.5852864918924317e-01  -1.5091827298014290e-01  -1.9195762832457658e-01  1.7536612475059860e-01  -1.1607846234864502e-01  2.0032193663784881e+00  1.7659885683606698e+00  1.5179004025225382e+00  1.1087556413071089e+00  9.8746733140714149e-01  8.8947881104594406e-01  1.0268887283231463e+00  1.1102687363903732e+00  2.2966306472360070e+00  1.9049123651791869e-01  -2.0031410645672052e+00  -1.3567082577552836e+00  -1.0207447179253697e+00  -9.6567053022615135e-01  -9.8650123121796607e-01  -1.1560630631085740e+00  -1.3935189619871271e+00  -1.3734398756319857e+00  -2.2965980323831174e+00  -1.1607846234864502e-01  1.1637553041112256e-01  1.3570416479571936e+00  1.9263042143385770e-01  1.2915686497899725e-01  -4.5992287442103569e-03  2.2620156039682694e-02  7.0621772913465174e-03  1.2214963779585476e-01  1.7286886794863981e-01  1.3735763253430842e+00  1.5026675465618375e-01  -1.7661883174139195e+00  -1.9258656982987307e-01  -5.0898502941711957e-02  -3.3334475535410999e-03  -1.7959215808974579e-02  -5.2019623702118586e-02  -1.7593912386709745e-01  -1.7295751645632812e-01  -1.1101117482053329e+00  1.1637553041112256e-01  -5.0442079017331817e-02  1.0211553966064366e+00  5.0949254390662349e-02  1.8148527936898137e-01  1.3909055200454315e-01  1.4343014684224167e-01  1.1842188945481641e-01  2.1564346855824554e-01  1.7585954407451407e-01  1.3937409993960705e+00  1.5769504531571119e-01  -1.5179714560865010e+00  -1.2912417837685933e-01  -1.8134554212043666e-01  -1.4300839497625986e-01  -1.6180363241512918e-01  -1.4996852733538102e-01  -2.1562373437401017e-01  -1.2217231315501517e-01  -1.0268888342391009e+00  -5.0442079017331817e-02  -4.2264138018535395e-02  9.6597513938469970e-01  3.3370606606443485e-03  1.4310012524912971e-01  8.5981419549492552e-02  8.1035318432569795e-02  6.4029838352830479e-02  1.5010162561515306e-01  5.1897757949033091e-02  1.1562519818534827e+00  -3.8410637112980123e-02  -1.1087742198059380e+00  4.6952283323600900e-03  -1.3895731324312557e-01  -8.5840236928328123e-02  -8.7765304990621157e-02  -6.3894084339398430e-02  -1.1831859708660618e-01  -6.9873995137390808e-03  -8.8954972606604432e-01  -4.2264138018535395e-02  -5.6118136421327861e-02  9.8677641676595995e-01  1.7930000337247849e-02  1.6188400650619122e-01  8.7891378003274581e-02  9.3646298173291412e-02  8.7887466227298539e-02  1.6192751852402362e-01  1.8104479551194708e-02  9.8667749609059940e-01  -5.6354663181495256e-02  -9.8735746954926995e-01  -2.2536568893286972e-02  -1.4334303569288095e-01  -8.0938394351535686e-02  -9.3522472896297892e-02  -8.0936336103748771e-02  -1.4333889135363942e-01  -2.2504688451060722e-02  -9.8766108282726572e-01  -5.6118136421327861e-02  -3.8124397200505152e-02  1.1563631854853416e+00  5.1935844529391789e-02  1.4997653101342145e-01  6.3996979929366177e-02  8.1086209064695880e-02  8.6001774580824739e-02  1.4315154609419145e-01  3.4953112364426069e-03  9.6589624792193574e-01  -4.2432720273674264e-02  -8.8935120294726111e-01  -7.0511572903320819e-03  -1.1838548046304552e-01  -6.3925760578297811e-02  -8.7796156208985357e-02  -8.5866236982123562e-02  -1.3905508766897035e-01  4.7101313254451511e-03  -1.1091480495805619e+00  -3.8124397200505152e-02  1.5821071597348599e-01  1.3938566632238163e+00  1.7589785875640931e-01  2.1562269714580082e-01  1.1838732474542453e-01  1.4345555617212885e-01  1.3915027357521409e-01  1.8158484829372631e-01  5.1093090366658371e-02  1.0211540281465896e+00  -5.0598840578526483e-02  -1.0267721983177107e+00  -1.2228305618125546e-01  -2.1571629451698371e-01  -1.5002817908807489e-01  -1.6187514808103459e-01  -1.4309416801473976e-01  -1.8144237234327257e-01  -1.2921994024738420e-01  -1.5184873419150362e+00  1.5821071597348599e-01  1.5081666516554693e-01  1.3735940287923687e+00  1.7292400928360618e-01  1.2221513353799421e-01  7.1195022289312522e-03  2.2710268331696627e-02  -4.4782929202350913e-03  1.2928999450715936e-01  1.9274439070072286e-01  1.3570051918606683e+00  1.1638866427005928e-01  -1.1099997586929855e+00  -1.7296039557581211e-01  -1.7591932993604489e-01  -5.2011487209099663e-02  -1.8002190877652539e-02  -3.3265357735847924e-03  -5.0899040570264856e-02  -1.9274383668993797e-01  -1.7664573893700561e+00  1.5081666516554693e-01  1.9104122897104484e-01  2.2970123192086449e+00  1.1106483239884894e+00  1.0271466525852857e+00  8.8965963851795338e-01  9.8765943464324957e-01  1.1089842367437801e+00  1.5181158451003891e+00  1.7661370719406899e+00  2.0031701657308929e+00  -1.1599621576197727e-01  -2.2967328808775740e+00  -1.3736198949699778e+00  -1.3937338565730637e+00  -1.1562980946110621e+00  -9.8678016819132408e-01  -9.6601281393305483e-01  -1.0211569583064894e+00  -1.3572852822180383e+00  -2.0031385072655277e+00  1.9104122897104484e-01  -1.7612881285779053e-01  1.1434639979954510e-01  -1.1739176235429712e-01  5.0087110733231084e-02  4.2368053665053931e-02  5.6505334010716828e-02  3.8778141011080763e-02  -1.5700300907124640e-01  -1.4944622361059656e-01  -1.9004355626428721e-01  1.7548663474099047e-01  -1.9158490845369480e-01  -1.5059156496746942e-01  -1.5807697915438615e-01  3.8091249370420945e-02  5.6003897555850710e-02  4.2094543145115335e-02  5.0149029604075961e-02  -1.1686500271849465e-01  1.1578110911579027e-01  -1.7612881285779053e-01  -1.5231782888638348e-01  1.0052010401511707e-01  -1.5193226839499815e-01  3.8954566317266272e-02  3.3046439094112936e-03  1.8647108827605653e-02  2.9054115815815049e-02  -6.6549524855963049e-02  -1.0220412681304898e-01  -1.3061363986794164e-01  1.5183583548308555e-01  -2.2750052094803400e-01  -1.7877577014490850e-01  -1.4522924237025306e-01  7.7201818380703627e-02  6.0559916259371238e-02  1.7172665580587568e-02  2.3282419665755946e-02  -1.3753057885879622e-01  1.2214245986936613e-01  -1.5231782888638348e-01  2.2627983074476160e-01  -1.9733847797829132e+00  -1.2259784698289466e+00  -8.6549206772068588e-01  -7.5272721020318134e-01  -7.9954412414281650e-01  -9.8360978077160788e-01  -1.3066852619650582e+00  -1.4056291994397956e+00  -2.2490980717393647e+00  -1.0117193446170065e-01  1.9732140468006312e+00  1.7623060548603979e+00  1.4732178891352006e+00  9.3365766587304033e-01  7.4599603433079620e-01  6.8477188551338986e-01  8.8145124858434709e-01  9.9109220108220086e-01  2.1316764037609790e+00  2.2627983074476160e-01  1.7819396492014045e-01  -1.7622349552646688e+00  -9.1968874360705638e-02  -3.2802263146423941e-02  -2.3222409428527496e-03  -6.9457480227589812e-03  1.8160947197520410e-02  -1.0732962560718584e-01  -1.7623714756471168e-01  -9.7602233574085351e-01  1.5216551416369886e-01  1.2260518119267994e+00  9.2043764019064070e-02  4.2267903697200335e-02  -9.9349792822917393e-02  -1.7118458802119096e-02  3.3908781963954337e-03  1.2860335184632074e-01  1.0582693907746778e-01  1.2994993155885328e+00  1.7819396492014045e-01  1.4485225628696213e-01  -1.4730489678848169e+00  -4.2302426482529430e-02  -3.0558666073782687e-01  -3.2725896130686621e-01  -4.3259690973775389e-01  -3.4080611604236577e-01  -2.9099916068838755e-01  -1.4049243318917889e-01  -8.7133415838169170e-01  -3.8344991159233517e-02  8.6519623589391292e-01  3.2703998078044402e-02  3.0560510758443077e-01  3.2328332690560568e-01  3.3591174363948034e-01  3.4108463697192420e-01  3.7115528977820578e-01  1.4171463022397821e-01  1.3001878515955356e+00  1.4485225628696213e-01  -7.7248502319046036e-02  -9.3365379498684342e-01  9.9311037386918016e-02  -3.2321213941091798e-01  -3.7222520221536776e-01  -4.5070821816039919e-01  -3.6444999808494405e-01  -3.4332403829704083e-01  -5.7920167366774605e-02  -7.0604832381505067e-01  -2.3799340496779816e-03  7.5221232969330398e-01  2.2955571488946502e-03  3.2727125589518402e-01  3.7226473402048149e-01  4.4004751422389526e-01  4.2760169015402405e-01  3.7499080201940643e-01  3.3741858698083715e-02  9.8161859806728613e-01  -7.7248502319046036e-02  -6.0442638450843085e-02  -7.4616892720319083e-01  1.7177424048509703e-02  -3.3575070789119071e-01  -4.3986646276681080e-01  -4.9234653112260091e-01  -4.8748098786856386e-01  -4.6817644528386199e-01  -5.3322224416092287e-02  -7.7577369762477166e-01  -1.7416078336744852e-02  7.9885346360074772e-01  6.9787042967585696e-03  4.3264719554363668e-01  4.5080153054218131e-01  4.9240167172676114e-01  4.7129134358054525e-01  4.1072238235379804e-01  2.6121616786410850e-02  7.5247410317752927e-01  -6.0442638450843085e-02  -1.6935775498278127e-02  -6.8506976590680557e-01  -3.2625911262254368e-03  -3.4081947878843710e-01  -4.2743026272458085e-01  -4.7126115786601402e-01  -3.9221914251088907e-01  -3.6345433566297985e-01  2.3758860957994954e-02  -9.2390643335686784e-01  -2.7623095310241857e-02  9.8287009722412921e-01  -1.8262815823369534e-02  3.4076736947947217e-01  3.6453936814012428e-01  4.8748621838775835e-01  3.9225113471498585e-01  3.0885566372781870e-01  2.1338789213523779e-02  7.5351277923629489e-01  -1.6935775498278127e-02  -2.2982888912875598e-02  -8.8179165617454558e-01  -1.2848410739485289e-01  -3.7093962469173547e-01  -3.7482389903918628e-01  -4.1060268943094175e-01  -3.0863092049020691e-01  -2.7352468827459214e-01  -9.5681499613140139e-02  -1.3497060443221831e+00  6.8520496727106500e-02  1.3058620407959212e+00  1.0715835928654893e-01  2.9100704253717835e-01  3.4336470102152605e-01  4.6816476070748025e-01  3.6355538807211374e-01  2.7373619890371753e-01  7.8838468347481233e-02  8.7118215090665641e-01  -2.2982888912875598e-02  1.3793970335725453e-01  -9.9151790893492320e-01  -1.0586798967282593e-01  -1.4182884281454108e-01  -3.3743989669891096e-02  -2.6005698337518850e-02  -2.1106603445920413e-02  -7.8655897494582488e-02  -2.3444848986647013e-01  -1.6175226565538228e+00  1.0415917502454680e-01  1.4048411946800143e+00  1.7606938998850882e-01  1.4045572071151108e-01  5.7891785738646374e-02  5.3296599657705203e-02  -2.3728580849508296e-02  9.5743341311734162e-02  2.3452355372334588e-01  1.2400398954255680e+00  1.3793970335725453e-01  -1.2158835520278019e-01  -2.1319840414966809e+00  -1.2997616044542875e+00  -1.3005843100337231e+00  -9.8203407818064659e-01  -7.5284178637875188e-01  -7.5378658483848471e-01  -8.7131672994465803e-01  -1.2400771758180402e+00  -1.8226131337225793e+00  1.3220874862431869e-01  2.2485378844842745e+00  9.7597696840756076e-01  8.7137386203172140e-01  7.0608218492358099e-01  7.7574485904855184e-01  9.2378742682308557e-01  1.3494410807830031e+00  1.6173842396382951e+00  1.8225719559337987e+00  -1.2158835520278019e-01  1.5171412844771678e-01  -2.2543052205805067e-01  -1.7738668738106619e-01  -1.4421514095054286e-01  7.7678915126714668e-02  6.0768040212895627e-02  1.7176578750904056e-02  2.3092056792452676e-02  -1.3793788992834705e-01  1.2143572770366097e-01  -1.5242007477216363e-01  1.0056817405811079e-01  -1.5237090640207321e-01  3.8256958845672796e-02  2.4868094736367396e-03  1.7609677214052960e-02  2.7892654799870197e-02  -6.8065277945072847e-02  -1.0363994653574467e-01  -1.3251750471324186e-01  1.5171412844771678e-01  -1.0225529967064741e-01  1.9733169161368320e+00  1.7618442131616485e+00  1.4729466992441629e+00  9.3349203801876246e-01  7.4602483833711319e-01  6.8487287676733433e-01  8.8162696829484433e-01  9.9134947361468273e-01  2.1316744389664279e+00  2.2608387094822235e-01  -1.9732822413340969e+00  -1.2259674675032659e+00  -8.6530855046870392e-01  -7.5240481818257177e-01  -7.9905710771597704e-01  -9.8303881705159479e-01  -1.3060154783206566e+00  -1.4051218647479573e+00  -2.2487163628407369e+00  -1.0225529967064741e-01  1.5115137850790739e-01  1.2263694559528215e+00  9.1971463412501175e-02  4.2343592016540643e-02  -9.9238596693077621e-02  -1.7111588571873650e-02  3.3422962454695204e-03  1.2860167098256778e-01  1.0589581046516541e-01  1.2995829428523766e+00  1.7824247077712371e-01  -1.7621170629881004e+00  -9.1984517628280804e-02  -3.2733613725974123e-02  -2.3228548948774994e-03  -7.0194777989935004e-03  1.8184603845095272e-02  -1.0719789093353703e-01  -1.7610491783960500e-01  -9.7549405848836501e-01  1.5115137850790739e-01  -3.9141650739317871e-02  8.6568706962522912e-01  3.2698740115002234e-02  3.0558369295325521e-01  3.2314656972925920e-01  3.3568073384263197e-01  3.4089219003660048e-01  3.7105783368860557e-01  1.4176805042768184e-01  1.3002886214014080e+00  1.4478035412714091e-01  -1.4730340325796603e+00  -4.2276565318446237e-02  -3.0547646092164615e-01  -3.2722871239803131e-01  -4.3257847142987155e-01  -3.4081841844187971e-01  -2.9106438851956784e-01  -1.4047444399628470e-01  -8.7092272974903950e-01  -3.9141650739317871e-02  -3.0657369649709724e-03  7.5266057217834248e-01  2.2359032232311280e-03  3.2728119827260516e-01  3.7215557855088710e-01  4.3987754956158381e-01  4.2750166065930217e-01  3.7496239769669465e-01  3.3703063337293983e-02  9.8179725805996976e-01  -7.7460037470566234e-02  -9.3357067001254057e-01  9.9327973545178111e-02  -3.2310693954615488e-01  -3.7211213075725269e-01  -4.5061584013577721e-01  -3.6449756349177553e-01  -3.4336629329308832e-01  -5.7876150224641466e-02  -7.0570615936119174e-01  -3.0657369649709724e-03  -1.8123420020566907e-02  7.9935669130104781e-01  6.8014037464028485e-03  4.3259498612919278e-01  4.5073354442312558e-01  4.9233899984710433e-01  4.7131038014792231e-01  4.1068799602419792e-01  2.6090459755817058e-02  7.5258722491386487e-01  -6.0739917733466639e-02  -7.4602749867586959e-01  1.7130786757361825e-02  -3.3569611865916776e-01  -4.3975604270075597e-01  -4.9221192682919795e-01  -4.8736801515802369e-01  -4.6809202343707762e-01  -5.3204319933834676e-02  -7.7545025511919863e-01  -1.8123420020566907e-02  -2.8331359158854430e-02  9.8341022926342569e-01  -1.8354750861893834e-02  3.4079479624454634e-01  3.6453553689638635e-01  4.8758544173964807e-01  3.9224160568250965e-01  3.0880814401696505e-01  2.1328803317895464e-02  7.5363853021825344e-01  -1.7293236314169978e-02  -6.8484652136910829e-01  -3.4292801370892820e-03  -3.4077228008988414e-01  -4.2731337076569997e-01  -4.7110573843072234e-01  -3.9210761509516595e-01  -3.6339342598205060e-01  2.3846070463622016e-02  -9.2368146130675455e-01  -2.8331359158854430e-02  6.7742735123959605e-02  1.3064004711444044e+00  1.0713435201189657e-01  2.9098452294370503e-01  3.4334724174006331e-01  4.6817995423291819e-01  3.6352420710425148e-01  2.7364793166405199e-01  7.8819539617946438e-02  8.7139128700216417e-01  -2.3458139990909330e-02  -8.8151700205239170e-01  -1.2870240816975104e-01  -3.7096761855956578e-01  -3.747623817833