<?xml version="1.0"?>
<VTKFile type="UnstructuredGrid"  version="0.1"  >
<UnstructuredGrid>
<Piece  NumberOfPoints="2197" NumberOfCells="10368">
<Points>
<DataArray  type="Float64"  NumberOfComponents="3"  format="ascii">-3.141592653589793 -3.141592653589793 -3.141592653589793  -2.617993877991494 -3.141592653589793 -3.141592653589793  -2.094395102393196 -3.141592653589793 -3.141592653589793  -1.570796326794897 -3.141592653589793 -3.141592653589793  -1.047197551196598 -3.141592653589793 -3.141592653589793  -0.5235987755982987 -3.141592653589793 -3.141592653589793  0 -3.141592653589793 -3.141592653589793  0.5235987755982987 -3.141592653589793 -3.141592653589793  1.047197551196597 -3.141592653589793 -3.141592653589793  1.570796326794897 -3.141592653589793 -3.141592653589793  2.094395102393196 -3.141592653589793 -3.141592653589793  2.617993877991494 -3.141592653589793 -3.141592653589793  3.141592653589793 -3.141592653589793 -3.141592653589793  -3.141592653589793 -2.617993877991494 -3.141592653589793  -2.617993877991494 -2.617993877991494 -3.141592653589793  -2.094395102393196 -2.617993877991494 -3.141592653589793  -1.570796326794897 -2.617993877991494 -3.141592653589793  -1.047197551196598 -2.617993877991494 -3.141592653589793  -0.5235987755982987 -2.617993877991494 -3.141592653589793  0 -2.617993877991494 -3.141592653589793  0.5235987755982987 -2.617993877991494 -3.141592653589793  1.047197551196597 -2.617993877991494 -3.141592653589793  1.570796326794897 -2.617993877991494 -3.141592653589793  2.094395102393196 -2.617993877991494 -3.141592653589793  2.617993877991494 -2.617993877991494 -3.141592653589793  3.141592653589793 -2.617993877991494 -3.141592653589793  -3.141592653589793 -2.094395102393196 -3.141592653589793  -2.617993877991494 -2.094395102393196 -3.141592653589793  -2.094395102393196 -2.094395102393196 -3.141592653589793  -1.570796326794897 -2.094395102393196 -3.141592653589793  -1.047197551196598 -2.094395102393196 -3.141592653589793  -0.5235987755982987 -2.094395102393196 -3.141592653589793  0 -2.094395102393196 -3.141592653589793  0.5235987755982987 -2.094395102393196 -3.141592653589793  1.047197551196597 -2.094395102393196 -3.141592653589793  1.570796326794897 -2.094395102393196 -3.141592653589793  2.094395102393196 -2.094395102393196 -3.141592653589793  2.617993877991494 -2.094395102393196 -3.141592653589793  3.141592653589793 -2.094395102393196 -3.141592653589793  -3.141592653589793 -1.570796326794897 -3.141592653589793  -2.617993877991494 -1.570796326794897 -3.141592653589793  -2.094395102393196 -1.570796326794897 -3.141592653589793  -1.570796326794897 -1.570796326794897 -3.141592653589793  -1.047197551196598 -1.570796326794897 -3.141592653589793  -0.5235987755982987 -1.570796326794897 -3.141592653589793  0 -1.570796326794897 -3.141592653589793  0.5235987755982987 -1.570796326794897 -3.141592653589793  1.047197551196597 -1.570796326794897 -3.141592653589793  1.570796326794897 -1.570796326794897 -3.141592653589793  2.094395102393196 -1.570796326794897 -3.141592653589793  2.617993877991494 -1.570796326794897 -3.141592653589793  3.141592653589793 -1.570796326794897 -3.141592653589793  -3.141592653589793 -1.047197551196598 -3.141592653589793  -2.617993877991494 -1.047197551196598 -3.141592653589793  -2.094395102393196 -1.047197551196598 -3.141592653589793  -1.570796326794897 -1.047197551196598 -3.141592653589793  -1.047197551196598 -1.047197551196598 -3.141592653589793  -0.5235987755982987 -1.047197551196598 -3.141592653589793  0 -1.047197551196598 -3.141592653589793  0.5235987755982987 -1.047197551196598 -3.141592653589793  1.047197551196597 -1.047197551196598 -3.141592653589793  1.570796326794897 -1.047197551196598 -3.141592653589793  2.094395102393196 -1.047197551196598 -3.141592653589793  2.617993877991494 -1.047197551196598 -3.141592653589793  3.141592653589793 -1.047197551196598 -3.141592653589793  -3.141592653589793 -0.5235987755982987 -3.141592653589793  -2.617993877991494 -0.5235987755982987 -3.141592653589793  -2.094395102393196 -0.5235987755982987 -3.141592653589793  -1.570796326794897 -0.5235987755982987 -3.141592653589793  -1.047197551196598 -0.5235987755982987 -3.141592653589793  -0.5235987755982987 -0.5235987755982987 -3.141592653589793  0 -0.5235987755982987 -3.141592653589793  0.5235987755982987 -0.5235987755982987 -3.141592653589793  1.047197551196597 -0.5235987755982987 -3.141592653589793  1.570796326794897 -0.5235987755982987 -3.141592653589793  2.094395102393196 -0.5235987755982987 -3.141592653589793  2.617993877991494 -0.5235987755982987 -3.141592653589793  3.141592653589793 -0.5235987755982987 -3.141592653589793  -3.141592653589793 0 -3.141592653589793  -2.617993877991494 0 -3.141592653589793  -2.094395102393196 0 -3.141592653589793  -1.570796326794897 0 -3.141592653589793  -1.047197551196598 0 -3.141592653589793  -0.5235987755982987 0 -3.141592653589793  0 0 -3.141592653589793  0.5235987755982987 0 -3.141592653589793  1.047197551196597 0 -3.141592653589793  1.570796326794897 0 -3.141592653589793  2.094395102393196 0 -3.141592653589793  2.617993877991494 0 -3.141592653589793  3.141592653589793 0 -3.141592653589793  -3.141592653589793 0.5235987755982987 -3.141592653589793  -2.617993877991494 0.5235987755982987 -3.141592653589793  -2.094395102393196 0.5235987755982987 -3.141592653589793  -1.570796326794897 0.5235987755982987 -3.141592653589793  -1.047197551196598 0.5235987755982987 -3.141592653589793  -0.5235987755982987 0.5235987755982987 -3.141592653589793  0 0.5235987755982987 -3.141592653589793  0.5235987755982987 0.5235987755982987 -3.141592653589793  1.047197551196597 0.5235987755982987 -3.141592653589793  1.570796326794897 0.5235987755982987 -3.141592653589793  2.094395102393196 0.5235987755982987 -3.141592653589793  2.617993877991494 0.5235987755982987 -3.141592653589793  3.141592653589793 0.5235987755982987 -3.141592653589793  -3.141592653589793 1.047197551196597 -3.141592653589793  -2.617993877991494 1.047197551196597 -3.141592653589793  -2.094395102393196 1.047197551196597 -3.141592653589793  -1.570796326794897 1.047197551196597 -3.141592653589793  -1.047197551196598 1.047197551196597 -3.141592653589793  -0.5235987755982987 1.047197551196597 -3.141592653589793  0 1.047197551196597 -3.141592653589793  0.5235987755982987 1.047197551196597 -3.141592653589793  1.047197551196597 1.047197551196597 -3.141592653589793  1.570796326794897 1.047197551196597 -3.141592653589793  2.094395102393196 1.047197551196597 -3.141592653589793  2.617993877991494 1.047197551196597 -3.141592653589793  3.141592653589793 1.047197551196597 -3.141592653589793  -3.141592653589793 1.570796326794897 -3.141592653589793  -2.617993877991494 1.570796326794897 -3.141592653589793  -2.094395102393196 1.570796326794897 -3.141592653589793  -1.570796326794897 1.570796326794897 -3.141592653589793  -1.047197551196598 1.570796326794897 -3.141592653589793  -0.5235987755982987 1.570796326794897 -3.141592653589793  0 1.570796326794897 -3.141592653589793  0.5235987755982987 1.570796326794897 -3.141592653589793  1.047197551196597 1.570796326794897 -3.141592653589793  1.570796326794897 1.570796326794897 -3.141592653589793  2.094395102393196 1.570796326794897 -3.141592653589793  2.617993877991494 1.570796326794897 -3.141592653589793  3.141592653589793 1.570796326794897 -3.141592653589793  -3.141592653589793 2.094395102393196 -3.141592653589793  -2.617993877991494 2.094395102393196 -3.141592653589793  -2.094395102393196 2.094395102393196 -3.141592653589793  -1.570796326794897 2.094395102393196 -3.141592653589793  -1.047197551196598 2.094395102393196 -3.141592653589793  -0.5235987755982987 2.094395102393196 -3.141592653589793  0 2.094395102393196 -3.141592653589793  0.5235987755982987 2.094395102393196 -3.141592653589793  1.047197551196597 2.094395102393196 -3.141592653589793  1.570796326794897 2.094395102393196 -3.141592653589793  2.094395102393196 2.094395102393196 -3.141592653589793  2.617993877991494 2.094395102393196 -3.141592653589793  3.141592653589793 2.094395102393196 -3.141592653589793  -3.141592653589793 2.617993877991494 -3.141592653589793  -2.617993877991494 2.617993877991494 -3.141592653589793  -2.094395102393196 2.617993877991494 -3.141592653589793  -1.570796326794897 2.617993877991494 -3.141592653589793  -1.047197551196598 2.617993877991494 -3.141592653589793  -0.5235987755982987 2.617993877991494 -3.141592653589793  0 2.617993877991494 -3.141592653589793  0.5235987755982987 2.617993877991494 -3.141592653589793  1.047197551196597 2.617993877991494 -3.141592653589793  1.570796326794897 2.617993877991494 -3.141592653589793  2.094395102393196 2.617993877991494 -3.141592653589793  2.617993877991494 2.617993877991494 -3.141592653589793  3.141592653589793 2.617993877991494 -3.141592653589793  -3.141592653589793 3.141592653589793 -3.141592653589793  -2.617993877991494 3.141592653589793 -3.141592653589793  -2.094395102393196 3.141592653589793 -3.141592653589793  -1.570796326794897 3.141592653589793 -3.141592653589793  -1.047197551196598 3.141592653589793 -3.141592653589793  -0.5235987755982987 3.141592653589793 -3.141592653589793  0 3.141592653589793 -3.141592653589793  0.5235987755982987 3.141592653589793 -3.141592653589793  1.047197551196597 3.141592653589793 -3.141592653589793  1.570796326794897 3.141592653589793 -3.141592653589793  2.094395102393196 3.141592653589793 -3.141592653589793  2.617993877991494 3.141592653589793 -3.141592653589793  3.141592653589793 3.141592653589793 -3.141592653589793  -3.141592653589793 -3.141592653589793 -2.617993877991494  -2.617993877991494 -3.141592653589793 -2.617993877991494  -2.094395102393196 -3.141592653589793 -2.617993877991494  -1.570796326794897 -3.141592653589793 -2.617993877991494  -1.047197551196598 -3.141592653589793 -2.617993877991494  -0.5235987755982987 -3.141592653589793 -2.617993877991494  0 -3.141592653589793 -2.617993877991494  0.5235987755982987 -3.141592653589793 -2.617993877991494  1.047197551196597 -3.141592653589793 -2.617993877991494  1.570796326794897 
[...]
<PointData  Scalars="f_250716"> 
<DataArray  type="Float64"  Name="f_250716"  format="ascii">6.1484077289421436e-02  6.6557777808158136e-02  -2.4626325986485613e-02  5.6482338983121381e-03  -1.0595383060768547e-03  -3.7809870497414820e-02  -7.0985541116379405e-02  -3.5901750569769166e-02  -1.2943878054223930e-02  7.0277995178829461e-04  -3.3189779695266271e-02  5.4958159889197840e-02  6.1484077289421436e-02  4.8710468444714862e-02  -7.0022848730746423e-01  -1.0292243750552739e+00  -1.1743188832772604e+00  -1.0303961605288345e+00  -8.4239002053308665e-01  -5.9259409933893663e-02  6.8727441494772723e-01  1.1484522111415485e+00  1.1388545647101385e+00  9.6092544086136833e-01  8.3071643526501326e-01  4.8710468444714862e-02  7.4524370179087796e-03  -1.1521952814141778e+00  -1.4063386674061262e+00  -1.2967502655857861e+00  -1.6094634672143662e+00  -9.5711278317710269e-01  3.1093665456760209e-02  1.0172464762640367e+00  1.4137453979079049e+00  1.3486344399778631e+00  1.6167746556317182e+00  1.0249511274143537e+00  7.4524370179087796e-03  -1.0820528143916902e-02  -1.1282549591289976e+00  -1.3618233308993137e+00  -1.7978107177971607e+00  -1.3491172576936723e+00  -1.1348193056679317e+00  -8.3499587129583462e-03  1.1807355458939521e+00  1.2969997485693328e+00  1.7836905817840152e+00  1.2928440850424319e+00  1.1788574952354944e+00  -1.0820528143916902e-02  2.9186048756420620e-02  -9.5604100461329000e-01  -1.6201965292910072e+00  -1.2943770310819402e+00  -1.4077730316336292e+00  -1.1534457738634378e+00  9.3879807969623891e-03  1.0359171688927471e+00  1.6173196712371531e+00  1.3394276030349739e+00  1.4064575394461041e+00  1.0147686448414686e+00  2.9186048756420620e-02  -5.4827479169880546e-02  -8.4890503907282377e-01  -1.0228319167250060e+00  -1.1803491423578836e+00  -1.0155423330885176e+00  -6.8496172141919420e-01  4.5411898723278860e-02  8.4089889418892183e-01  9.5791163644372412e-01  1.1293335485134044e+00  1.1464221093634663e+00  6.8747499359235931e-01  -5.4827479169880546e-02  -4.6905701167696219e-02  -4.0071458327466912e-02  -1.0441135401956750e-02  1.2156358756588657e-02  -2.1995559563234023e-02  5.6599993284688496e-02  5.2029884555682776e-02  5.7866768290353719e-02  -2.9547251113815357e-02  6.7145766078869707e-03  -1.1321767280120841e-02  -5.3393286135974757e-02  -4.6905701167696219e-02  -6.4671595341184301e-02  6.8818448635905227e-01  1.1496260477431475e+00  1.1378591684078374e+00  9.6577149740262813e-01  8.4099328402096707e-01  3.8244216753221441e-02  -6.8540110059236203e-01  -1.0227374677498673e+00  -1.1703210389950203e+00  -1.0281571887289713e+00  -8.3102646622152765e-01  -6.4671595341184301e-02  2.6258369866783017e-02  1.0268523855198086e+00  1.4098322950586613e+00  1.3467673026278539e+00  1.6173029991965786e+00  1.0265849289698330e+00  6.2779029987905582e-03  -1.1547864867165851e+00  -1.4080682283029844e+00  -1.3007809119127887e+00  -1.6116827604798554e+00  -9.5677254807311418e-01  2.6258369866783017e-02  -1.1257288015670110e-02  1.1862090332856268e+00  1.3031572549406132e+00  1.7967645259509464e+00  1.2963928114935226e+00  1.1736227876166214e+00  -1.0860290567401665e-02  -1.1365184827650670e+00  -1.3521006555326052e+00  -1.7922687366213688e+00  -1.3466966133605023e+00  -1.1372023045059185e+00  -1.1257288015670110e-02  1.2814383358899574e-02  1.0291854449574047e+00  1.6172436579006695e+00  1.3422680013212349e+00  1.4132962577089696e+00  1.0119604021809303e+00  2.4013600304772384e-02  -9.6494603935627421e-01  -1.5963474361255361e+00  -1.3015460261389302e+00  -1.4053970537759024e+00  -1.1446340730052367e+00  1.2814383358899574e-02  3.7109501154910941e-02  8.4561544105635622e-01  9.5828026189668369e-01  1.1349759520320368e+00  1.1524612267544667e+00  6.9818225974522652e-01  -6.8599774239138628e-02  -8.3304420183739314e-01  -1.0262722038014862e+00  -1.1732656289854135e+00  -1.0182143969204458e+00  -6.8500800744877521e-01  3.7109501154910941e-02  6.1484077289421436e-02  6.6557777808158136e-02  -2.4626325986485613e-02  5.6482338983121381e-03  -1.0595383060768547e-03  -3.7809870497414820e-02  -7.0985541116379405e-02  -3.5901750569769166e-02  -1.2943878054223930e-02  7.0277995178829461e-04  -3.3189779695266271e-02  5.4958159889197840e-02  6.1484077289421436e-02  5.8647779047623090e-02  1.2763952742753198e-02  -4.1604865805214414e-02  -3.4773475466643587e-03  -6.4458321330565851e-02  -5.8249847983861527e-02  -3.6042460905472092e-02  -1.0170423531284986e-02  2.0478324037004551e-02  -2.8091595350975859e-03  4.4481510629127988e-02  8.7691039586091271e-02  5.8647779047623090e-02  -6.2242012648706111e-03  -6.3345313164750094e-01  -8.8640751547952978e-01  -9.7925709707810327e-01  -9.8462019288527003e-01  -6.6295024014587378e-01  -2.7451670495992168e-02  6.3355338591145838e-01  9.2289993214492638e-01  9.6138186430860628e-01  9.0993756679611060e-01  6.7873340590296283e-01  -6.2242012648706111e-03  -2.5801809722368018e-02  -9.2601394810595317e-01  -1.2136091968563885e+00  -1.3542164009412205e+00  -1.4145586689182457e+00  -7.9892201259095330e-01  4.5502305588902309e-02  8.8199859210509723e-01  1.2063973389832405e+00  1.3821877752383400e+00  1.3933367432624273e+00  8.5796456864406578e-01  -2.5801809722368018e-02  4.4278705209973681e-03  -9.6232999834908262e-01  -1.3830328933951477e+00  -1.6056590252530769e+00  -1.3348104599933954e+00  -9.7222719399177226e-01  9.5639404580260112e-03  9.6784930831183580e-01  1.3550763751882411e+00  1.6047834350004377e+00  1.2663811727434480e+00  1.0084051396743459e+00  4.4278705209973681e-03  -4.4652210816610839e-02  -9.2429019570977922e-01  -1.3891722281775614e+00  -1.2617503183143364e+00  -1.3411286135422786e+00  -1.0126735669349134e+00  6.9947831802092089e-02  9.7922037774411319e-01  1.4013554920532811e+00  1.3231329507177592e+00  1.3293941861480245e+00  8.7339901695806976e-01  -4.4652210816610839e-02  -8.3777496528856563e-02  -6.8437326951363242e-01  -8.5354215113683807e-01  -1.0038347392603095e+00  -8.7237080973341852e-01  -5.0654113473991491e-01  6.1037539501932157e-02  6.6559783574884135e-01  8.0834241609541768e-01  9.7568848748646830e-01  1.0108528605026084e+00  5.1223126797624208e-01  -8.3777496528856563e-02  -5.2246218054169721e-02  -3.7502508736620187e-03  1.9240727949926980e-02  -3.5239914202604395e-03  4.6451279366199527e-02  8.1255779395944500e-02  3.8374935235669774e-02  2.2944562765121704e-02  -4.0838136119861111e-02  -9.2169966694415489e-03  -6.9791347812867374e-02  -5.7675270581592705e-02  -5.2246218054169721e-02  -1.6015260028458059e-02  6.2433954206424203e-01  9.1976125629474936e-01  9.6365770811713314e-01  9.2178415157353200e-01  6.8917056722741565e-01  1.2393268701214093e-02  -6.3515453180637316e-01  -8.7759948253823050e-01  -9.6855808260308385e-01  -9.7912048199422763e-01  -6.6794910024871046e-01  -1.6015260028458059e-02  4.2551420707782499e-02  8.8731627916164668e-01  1.2070629962133455e+00  1.3847434555825042e+00  1.3924576861528695e+00  8.5394423782753259e-01  -3.1116388973204855e-02  -9.1910956101441099e-01  -1.2122966915159494e+00  -1.3545545896850817e+00  -1.3980865810945082e+00  -8.0031561797890238e-01  4.2551420707782499e-02  7.0164461873621631e-03  9.7618279758311344e-01  1.3543031119215496e+00  1.6153661506371928e+00  1.2568996085933490e+00  1.0120643149716699e+00  -3.6519164351443379e-03  -9.6129764605615542e-01  -1.3775833941094218e+00  -1.6088669305382433e+00  -1.3346064480834996e+00  -9.7202298801536557e-01  7.0164461873621631e-03  7.6818204248159883e-02  9.8145638569947014e-01  1.4052684885046707e+00  1.3288427131139773e+00  1.3377652188541906e+00  8.7600787728383622e-01  -5.2424141971533347e-02  -9.1656873848491249e-01  -1.3915463205100802e+00  -1.2701758674293211e+00  -1.3402483658774698e+00  -1.0203483521520793e+00  7.6818204248159883e-02  6.7787729499004815e-02  6.7725255915595262e-01  7.9847250309543449e-01  9.7246853228722629e-01  1.0152894846359315e+00  5.1567106847061916e-01  -7.4165945876298586e-02  -6.9263663198643011e-01  -8.4308286269704491e-01  -9.9291672478850579e-01  -8.7432897163747680e-01  -5.1717005952798945e-01  6.7787729499004815e-02  5.8647779047623090e-02  1.2763952742753198e-02  -4.1604865805214414e-02  -3.4773475466643587e-03  -6.4458321330565851e-02  -5.8249847983861527e-02  -3.6042460905472092e-02  -1.0170423531284986e-02  2.0478324037004551e-02  -2.8091595350975859e-03  4.4481510629127988e-02  8.7691039586091271e-02  5.8647779047623090e-02  1.1867712517056372e-02  2.0559752793321198e-02  -2.3263090234283957e-02  -3.2853278707792505e-02  -4.9171816359079579e-02  -4.6573583589470800e-02  -1.8942219056311081e-02  5.7483136378049817e-04  3.3857665875172360e-02  1.7239316114710378e-02  4.5899260937209196e-02  8.3208296878502855e-03  1.1867712517056372e-02  1.7255551561434421e-02  -3.4240082754288814e-01  -5.3158850847249484e-01  -6.1772575751051284e-01  -5.8899407112772129e-01  -3.2276542656360108e-01  -1.1600071051247865e-02  3.3126500748350290e-01  5.3562968640493513e-01  6.5060298063380861e-01  5.7636977696118752e-01  3.3482518529306715e-01  1.7255551561434421e-02  -2.2881201041682855e-02  -5.4175785618354377e-01  -8.0911041222836189e-01  -9.7668783443540863e-01  -8.4855930809814617e-01  -4.3700834626940077e-01  1.4793251078972886e-02  5.3508505269133211e-01  8.1224397511860769e-01  9.7802279232437439e-01  8.2447769485358868e-01  4.6825490746973492e-01  -2.2881201041682855e-02  -2.3402125869049151e-02  -6.4402584106487448e-01  -9.8159571118284272e-01  -1.0444968645265627e+00  -9.1299983193741918e-01  -5.3215933954168704e-01  3.4789585731290450e-02  6.1955823622242756e-01  9.7501552717634599e-01  1.0396151807061242e+00  9.1763044117671932e-01  5.5749280605456863e-01  -2.3402125869049151e-02  -5.6472491899204891e-02  -5.7115487803239706e-01  -8.2284009814077474e-01  -9.1630636296825274e-01  -8.1989565276170318e-01  -4.9474177563416183e-01  5.5844182384955816e-02  5.9712116789929814e-01  8.5389148278611038e-01  9.0758664578227455e-01  8.0873568133440965e-01  4.6763091752888186e-01  -5.6472491899204891e-02  -1.9483519438065245e-02  -3.3542589163699871e-01  -4.7720695203773872e-01  -5.5303856422037478e-01  -4.5508693325425026e-01  -1.9423430515873963e-01  4.6091594968118231e-02  3.1020384048464139e-01  4.3701813814871254e-01  5.2771784658598342e-01  4.9861828479830239e-01  2.0281403879907053e-01  -1.9483519438065245e-02  -2.6408410437676187e-02  -5.0981679875186387e-03  2.9895338000379364e-02  2.1949521836819624e-02  5.5241384811452979e-02  2.1334577965759331e-02  2.4386534127680944e-02  1.6282657988251497e-02  -2.8831747506071034e-02  -3.4896432876457391e-02  -4.7748144110777616e-02  -4.8391788495420279e-02  -2.6408410437676187e-02  -1.4910045783402149e-02  3.2685283618385458e-01  5.3012642864599635e-01  6.5511293045489394e-01  5.7679617297055519e-01  3.4177370472385099e-01  1.3731637225321270e-02  -3.3680769614828948e-01  -5.2943712918111763e-01  -6.0812036990342744e-01  -5.9331680785649021e-01  -3.1378872548811687e-01  -1.4910045783402149e-02  2.5062188933364052e-02  5.1788053737623030e-01  8.1357948167227656e-01  9.7669891008743259e-01  8.1985790088088040e-01  4.6662967772577135e-01  -3.3824719476442944e-02  -5.4226878852093818e-01  -8.1053536637806489e-01  -9.6627611487499832e-01  -8.4665712815373873e-01  -4.3277387170177106e-01  2.5062188933364052e-02  3.5538785063663168e-02  6.2048023495917048e-01  9.7147724499163546e-01  1.0513228909568417e+00  9.0971934176992231e-01  5.5394459910844529e-01  -3.2125736264745762e-02  -6.5022679504879988e-01  -9.7411803226739535e-01  -1.0456980663952848e+00  -9.0822432052741608e-01  -5.3686656599107874e-01  3.5538785063663168e-02  4.9751135062039070e-02  5.9550732809970586e-01  8.5234144160349967e-01  9.1305459328954386e-01  8.2479426964657632e-01  4.5625197189648525e-01  -5.7205642786430859e-02  -5.7077195715867712e-01  -8.2456808507612456e-01  -9.1260815952202456e-01  -8.2243246778785473e-01  -4.9942205437975584e-01  4.9751135062039070e-02  5.3485224314160390e-02  3.0392609806422599e-01  4.3424442311297801e-01  5.3113018194379735e-01  5.0317193940162386e-01  2.0228956997712577e-01  -1.5800019261409368e-02  -3.3070294832752345e-01  -4.7063386364938042e-01  -5.5761547295637470e-01  -4.5724881461038175e-01  -2.0733727220526277e-01  5.3485224314160390e-02  1.1867712517056372e-02  2.0559752793321198e-02  -2.3263090234283957e-02  -3.2853278707792505e-02  -4.9171816359079579e-02  -4.6573583589470800e-02  -1.8942219056311081e-02  5.7483136378049817e-04  3.3857665875172360e-02  1.7239316114710378e-02  4.5899260937209196e-02  8.3208296878502855e-03  1.1867712517056372e-02  6.8700231760319619e-03  -1.2869905232265454e-02  -1.6520546559171932e-02  -8.2797433158256026e-03  -1.7380665961342714e-02  -1.4066231281528977e-02  3.6408928925567638e-04  -1.1341279064207336e-03  1.8885408029708478e-02  3.6291577683956897e-02  2.0077828713077117e-02  1.2948452168935653e-02  6.8700231760319619e-03  -8.1996343689845590e-03  -5.1929942952983810e-02  -5.5008012682611310e-02  -5.6664259187510418e-02  -4.6036887076865880e-02  -3.4064351795783979e-03  1.8817595259325182e-02  5.5174789584647083e-02  8.2828796832005377e-02  4.2637236984447158e-02  5.7674975704444034e-03  1.0376526603320254e-02  -8.1996343689845590e-03  -2.7025823870431214e-02  -7.6882078076201038e-02  -8.0279222125654609e-02  -6.0921348968866307e-02  -3.8716749567305507e-04  3.3573997991879316e-02  2.3013126011174893e-02  3.1035364117146910e-02  8.2209571996480449e-02  5.9505032069238226e-02  -2.4422324562569666e-04  -1.1244071684155274e-03  -2.7025823870431214e-02  -2.9966935921390173e-02  -5.0482892210414972e-02  -5.3481085714554087e-02  -7.3531481965000752e-03  5.9736417424036715e-02  5.3116183802173672e-02  -1.2033391212010237e-03  4.6555056659703796e-02  6.1757007548374418e-02  4.0484263529241621e-03  -4.9955481384755078e-02  -4.1738563210311837e-02  -2.9966935921390173e-02  -2.2907186309074266e-02  1.5153288101515570e-03  -3.8680555239432386e-03  5.1406833727420075e-02  9.7823114936382849e-02  4.4884884359384342e-02  2.1456037987688577e-02  4.7223157847777315e-02  -3.9470735508538319e-03  -5.2682879524970305e-02  -8.4301751901988492e-02  -7.6481141802047320e-02  -2.2907186309074266e-02  -1.5777360547697673e-02  -3.3147973433140933e-03  5.9461658407911041e-03  4.7779261549015503e-02  7.8745038318053989e-02  5.0045875433478999e-02  2.0456147728387868e-02  5.5846837619547285e-03  -4.3469713422752528e-02  -4.8992051552643467e-02  -5.4479374822642354e-02  -5.0068193613289007e-02  -1.5777360547697673e-02  7.8478579649913041e-04  1.4394055356943297e-02  2.6132666895840040e-02  2.8162496578463963e-02  2.7758048968291840e-02  7.8248222797391402e-03  6.3066099974730212e-03  -8.3343064282479541e-03  -1.9693416309274694e-02  1.5638229528188287e-03  -1.3338391861763936e-02  -2.9530928041358095e-02  7.8478579649913041e-04  1.3950365748563827e-02  4.6994307531092190e-02  7.5561615822377096e-02  4.9509708489251673e-02  8.6133567615051879e-03  2.7284638790877436e-03  -3.0666805550783392e-03  -4.9509803914557560e-02  -4.5115676540336394e-02  -3.7005169173971980e-02  -4.8176984782189007e-02  -1.0799527483921060e-03  1.3950365748563827e-02  8.2832074673131455e-03  4.8494969330359641e-02  8.1633862971156185e-02  4.7891689244133243e-02  -9.0973598502255421e-03  -8.0679453718772824e-03  -3.0363187821104743e-02  -7.9200404967899304e-02  -7.6745905168345507e-02  -6.0460191537746448e-02  3.6293945141829794e-03  4.3424037678288951e-02  8.2832074673131455e-03  -5.8141598005558449e-03  4.9486072433434655e-02  5.9242675529326640e-02  -3.0359129943307913e-03  -5.4485107779985234e-02  -5.7036614235176440e-02  -2.9600509450002591e-02  -4.5416848775329664e-02  -4.8706907404372536e-02  -1.6884978670287814e-03  7.2237832340104682e-02  4.6211149594679507e-02  -5.8141598005558449e-03  2.2717982475046489e-02  5.0959593807875785e-02  5.5643489914074477e-03  -5.5539875534332171e-02  -8.0560305605824584e-02  -7.8928777337988670e-02  -3.9201561467962033e-02  -1.3990689436638353e-03  -2.0411919752883847e-03  4.6821476400694569e-02  7.6017332314893271e-02  4.3403967283761800e-02  2.2717982475046489e-02  1.9774059417696492e-02  -3.5639146971629585e-03  -4.0949038706793894e-02  -4.1892441630906010e-02  -4.7553003507976054e-02  -5.3101319524840325e-02  -5.9159406801646396e-03  -2.1974601616045871e-04  1.3672409087071064e-02  3.1304802901184550e-02  8.1475271386497031e-02  4.7285278533966475e-02  1.9774059417696492e-02  6.8700231760319619e-03  -1.2869905232265454e-02  -1.6520546559171932e-02  -8.2797433158256026e-03  -1.7380665961342714e-02  -1.4066231281528977e-02  3.6408928925567638e-04  -1.1341279064207336e-03  1.8885408029708478e-02  3.6291577683956897e-02  2.0077828713077117e-02  1.2948452168935653e-02  6.8700231760319619e-03  -2.1173217254763777e-02  -4.4152966264381303e-02  -5.6079543565746667e-02  -3.5069684231589272e-02  -3.6475105282338903e-02  1.6514293496118281e-02  1.4628759974526449e-02  3.0568860476501012e-02  6.2661032059387764e-02  2.2711464077708139e-02  2.7054558817125533e-02  1.5547895261701103e-03  -2.1173217254763777e-02  -1.9272014771079187e-02  2.0124067770923429e-01  5.0624790582224788e-01  5.3133017150548767e-01  4.4005062289779273e-01  3.0545946516663608e-01  4.8783790080407174e-02  -2.0860140888964232e-01  -4.7125551504295776e-01  -5.6841514986427899e-01  -4.7439814662484769e-01  -3.3273538003732384e-01  -1.9272014771079187e-02  -5.2420077490029818e-02  4.5233217745085141e-01  8.2742438823734910e-01  9.1356911100927829e-01  8.4736728462379862e-01  5.9635890127496849e-01  5.1214538159902068e-02  -5.0590040839928485e-01  -8.2069272329264287e-01  -9.1338195534093691e-01  -8.1675337451217500e-01  -5.6680732213830887e-01  -5.2420077490029818e-02  -2.4018979834919751e-02  5.6162038031160300e-01  9.0894315735819087e-01  1.0524592186485824e+00  9.7093038837646117e-01  6.1704875914463964e-01  1.8407726503074727e-02  -5.3658647523721992e-01  -9.0496273183647258e-01  -1.0417553103432464e+00  -9.7846527688535700e-01  -6.3905131847210872e-01  -2.4018979834919751e-02  -1.6003397328573553e-02  4.6988919134351353e-01  8.2641735059251920e-01  9.8701239553846132e-01  8.0420525492247541e-01  5.1761551013751728e-01  2.1395199078700956e-02  -4.3640611958256842e-01  -8.6046637562128214e-01  -9.7233927000346587e-01  -8.1028278144193455e-01  -5.3692577948255116e-01  -1.6003397328573553e-02  9.9449668908579807e-03  3.3300752489923902e-01  5.7039823029628545e-01  6.3902128731234686e-01  5.3460116451777084e-01  3.2399510422838868e-01  1.1120531968968285e-04  -3.1178099227048012e-01  -6.0418232875839939e-01  -6.2193370495477940e-01  -5.1952478092557297e-01  -3.4320324786113582e-01  9.9449668908579807e-03  1.7968120536320076e-02  2.9729526237021749e-02  4.8305997595450796e-02  1.9883534932292064e-02  3.7021480833762353e-02  -6.3922897041348344e-03  -1.0834617616533898e-02  -4.7042293252591960e-02  -2.8651167338692919e-02  -1.4854531885103332e-02  -1.1390143830775842e-02  5.4586447691995351e-03  1.7968120536320076e-02  4.8465185453565256e-02  -2.0443386183549300e-01  -4.6417082145534194e-01  -5.6238467972908412e-01  -4.7380837971022571e-01  -3.3550214802123068e-01  -2.7948977029756406e-02  2.2224582500583068e-01  5.0869322133862116e-01  5.4360414650152589e-01  4.3298244801329061e-01  2.9544272128959137e-01  4.8465185453565256e-02  4.5872878638879622e-02  -4.9917281302316752e-01  -8.2043503555669084e-01  -9.1263355444429939e-01  -8.2950981553920855e-01  -5.7259449488692515e-01  -5.5112125773798058e-02  4.7341030653540034e-01  8.2618212662462120e-01  9.2053877200474754e-01  8.4649525066092013e-01  5.9655749260362301e-01  4.5872878638879622e-02  2.3136688497876562e-02  -5.3046225836286587e-01  -9.2351965254633051e-01  -1.0406407125009713e+00  -9.8853346820726185e-01  -6.5328068790895988e-01  -2.2617508700268192e-02  5.6361417881351827e-01  9.0985462904972858e-01  1.0588072525947161e+00  9.8311429250609206e-01  6.2156765246609291e-01  2.3136688497876562e-02  1.1012001066590957e-02  -4.3945948923001082e-01  -8.4348464390511646e-01  -9.6385037829024922e-01  -8.0807550735390465e-01  -5.4588689051824901e-01  -2.85234707