<?xml version="1.0"?>
<VTKFile type="UnstructuredGrid"  version="0.1"  >
<UnstructuredGrid>
<Piece  NumberOfPoints="2197" NumberOfCells="10368">
<Points>
<DataArray  type="Float64"  NumberOfComponents="3"  format="ascii">-3.141592653589793 -3.141592653589793 -3.141592653589793  -2.617993877991494 -3.141592653589793 -3.141592653589793  -2.094395102393196 -3.141592653589793 -3.141592653589793  -1.570796326794897 -3.141592653589793 -3.141592653589793  -1.047197551196598 -3.141592653589793 -3.141592653589793  -0.5235987755982987 -3.141592653589793 -3.141592653589793  0 -3.141592653589793 -3.141592653589793  0.5235987755982987 -3.141592653589793 -3.141592653589793  1.047197551196597 -3.141592653589793 -3.141592653589793  1.570796326794897 -3.141592653589793 -3.141592653589793  2.094395102393196 -3.141592653589793 -3.141592653589793  2.617993877991494 -3.141592653589793 -3.141592653589793  3.141592653589793 -3.141592653589793 -3.141592653589793  -3.141592653589793 -2.617993877991494 -3.141592653589793  -2.617993877991494 -2.617993877991494 -3.141592653589793  -2.094395102393196 -2.617993877991494 -3.141592653589793  -1.570796326794897 -2.617993877991494 -3.141592653589793  -1.047197551196598 -2.617993877991494 -3.141592653589793  -0.5235987755982987 -2.617993877991494 -3.141592653589793  0 -2.617993877991494 -3.141592653589793  0.5235987755982987 -2.617993877991494 -3.141592653589793  1.047197551196597 -2.617993877991494 -3.141592653589793  1.570796326794897 -2.617993877991494 -3.141592653589793  2.094395102393196 -2.617993877991494 -3.141592653589793  2.617993877991494 -2.617993877991494 -3.141592653589793  3.141592653589793 -2.617993877991494 -3.141592653589793  -3.141592653589793 -2.094395102393196 -3.141592653589793  -2.617993877991494 -2.094395102393196 -3.141592653589793  -2.094395102393196 -2.094395102393196 -3.141592653589793  -1.570796326794897 -2.094395102393196 -3.141592653589793  -1.047197551196598 -2.094395102393196 -3.141592653589793  -0.5235987755982987 -2.094395102393196 -3.141592653589793  0 -2.094395102393196 -3.141592653589793  0.5235987755982987 -2.094395102393196 -3.141592653589793  1.047197551196597 -2.094395102393196 -3.141592653589793  1.570796326794897 -2.094395102393196 -3.141592653589793  2.094395102393196 -2.094395102393196 -3.141592653589793  2.617993877991494 -2.094395102393196 -3.141592653589793  3.141592653589793 -2.094395102393196 -3.141592653589793  -3.141592653589793 -1.570796326794897 -3.141592653589793  -2.617993877991494 -1.570796326794897 -3.141592653589793  -2.094395102393196 -1.570796326794897 -3.141592653589793  -1.570796326794897 -1.570796326794897 -3.141592653589793  -1.047197551196598 -1.570796326794897 -3.141592653589793  -0.5235987755982987 -1.570796326794897 -3.141592653589793  0 -1.570796326794897 -3.141592653589793  0.5235987755982987 -1.570796326794897 -3.141592653589793  1.047197551196597 -1.570796326794897 -3.141592653589793  1.570796326794897 -1.570796326794897 -3.141592653589793  2.094395102393196 -1.570796326794897 -3.141592653589793  2.617993877991494 -1.570796326794897 -3.141592653589793  3.141592653589793 -1.570796326794897 -3.141592653589793  -3.141592653589793 -1.047197551196598 -3.141592653589793  -2.617993877991494 -1.047197551196598 -3.141592653589793  -2.094395102393196 -1.047197551196598 -3.141592653589793  -1.570796326794897 -1.047197551196598 -3.141592653589793  -1.047197551196598 -1.047197551196598 -3.141592653589793  -0.5235987755982987 -1.047197551196598 -3.141592653589793  0 -1.047197551196598 -3.141592653589793  0.5235987755982987 -1.047197551196598 -3.141592653589793  1.047197551196597 -1.047197551196598 -3.141592653589793  1.570796326794897 -1.047197551196598 -3.141592653589793  2.094395102393196 -1.047197551196598 -3.141592653589793  2.617993877991494 -1.047197551196598 -3.141592653589793  3.141592653589793 -1.047197551196598 -3.141592653589793  -3.141592653589793 -0.5235987755982987 -3.141592653589793  -2.617993877991494 -0.5235987755982987 -3.141592653589793  -2.094395102393196 -0.5235987755982987 -3.141592653589793  -1.570796326794897 -0.5235987755982987 -3.141592653589793  -1.047197551196598 -0.5235987755982987 -3.141592653589793  -0.5235987755982987 -0.5235987755982987 -3.141592653589793  0 -0.5235987755982987 -3.141592653589793  0.5235987755982987 -0.5235987755982987 -3.141592653589793  1.047197551196597 -0.5235987755982987 -3.141592653589793  1.570796326794897 -0.5235987755982987 -3.141592653589793  2.094395102393196 -0.5235987755982987 -3.141592653589793  2.617993877991494 -0.5235987755982987 -3.141592653589793  3.141592653589793 -0.5235987755982987 -3.141592653589793  -3.141592653589793 0 -3.141592653589793  -2.617993877991494 0 -3.141592653589793  -2.094395102393196 0 -3.141592653589793  -1.570796326794897 0 -3.141592653589793  -1.047197551196598 0 -3.141592653589793  -0.5235987755982987 0 -3.141592653589793  0 0 -3.141592653589793  0.5235987755982987 0 -3.141592653589793  1.047197551196597 0 -3.141592653589793  1.570796326794897 0 -3.141592653589793  2.094395102393196 0 -3.141592653589793  2.617993877991494 0 -3.141592653589793  3.141592653589793 0 -3.141592653589793  -3.141592653589793 0.5235987755982987 -3.141592653589793  -2.617993877991494 0.5235987755982987 -3.141592653589793  -2.094395102393196 0.5235987755982987 -3.141592653589793  -1.570796326794897 0.5235987755982987 -3.141592653589793  -1.047197551196598 0.5235987755982987 -3.141592653589793  -0.5235987755982987 0.5235987755982987 -3.141592653589793  0 0.5235987755982987 -3.141592653589793  0.5235987755982987 0.5235987755982987 -3.141592653589793  1.047197551196597 0.5235987755982987 -3.141592653589793  1.570796326794897 0.5235987755982987 -3.141592653589793  2.094395102393196 0.5235987755982987 -3.141592653589793  2.617993877991494 0.5235987755982987 -3.141592653589793  3.141592653589793 0.5235987755982987 -3.141592653589793  -3.141592653589793 1.047197551196597 -3.141592653589793  -2.617993877991494 1.047197551196597 -3.141592653589793  -2.094395102393196 1.047197551196597 -3.141592653589793  -1.570796326794897 1.047197551196597 -3.141592653589793  -1.047197551196598 1.047197551196597 -3.141592653589793  -0.5235987755982987 1.047197551196597 -3.141592653589793  0 1.047197551196597 -3.141592653589793  0.5235987755982987 1.047197551196597 -3.141592653589793  1.047197551196597 1.047197551196597 -3.141592653589793  1.570796326794897 1.047197551196597 -3.141592653589793  2.094395102393196 1.047197551196597 -3.141592653589793  2.617993877991494 1.047197551196597 -3.141592653589793  3.141592653589793 1.047197551196597 -3.141592653589793  -3.141592653589793 1.570796326794897 -3.141592653589793  -2.617993877991494 1.570796326794897 -3.141592653589793  -2.094395102393196 1.570796326794897 -3.141592653589793  -1.570796326794897 1.570796326794897 -3.141592653589793  -1.047197551196598 1.570796326794897 -3.141592653589793  -0.5235987755982987 1.570796326794897 -3.141592653589793  0 1.570796326794897 -3.141592653589793  0.5235987755982987 1.570796326794897 -3.141592653589793  1.047197551196597 1.570796326794897 -3.141592653589793  1.570796326794897 1.570796326794897 -3.141592653589793  2.094395102393196 1.570796326794897 -3.141592653589793  2.617993877991494 1.570796326794897 -3.141592653589793  3.141592653589793 1.570796326794897 -3.141592653589793  -3.141592653589793 2.094395102393196 -3.141592653589793  -2.617993877991494 2.094395102393196 -3.141592653589793  -2.094395102393196 2.094395102393196 -3.141592653589793  -1.570796326794897 2.094395102393196 -3.141592653589793  -1.047197551196598 2.094395102393196 -3.141592653589793  -0.5235987755982987 2.094395102393196 -3.141592653589793  0 2.094395102393196 -3.141592653589793  0.5235987755982987 2.094395102393196 -3.141592653589793  1.047197551196597 2.094395102393196 -3.141592653589793  1.570796326794897 2.094395102393196 -3.141592653589793  2.094395102393196 2.094395102393196 -3.141592653589793  2.617993877991494 2.094395102393196 -3.141592653589793  3.141592653589793 2.094395102393196 -3.141592653589793  -3.141592653589793 2.617993877991494 -3.141592653589793  -2.617993877991494 2.617993877991494 -3.141592653589793  -2.094395102393196 2.617993877991494 -3.141592653589793  -1.570796326794897 2.617993877991494 -3.141592653589793  -1.047197551196598 2.617993877991494 -3.141592653589793  -0.5235987755982987 2.617993877991494 -3.141592653589793  0 2.617993877991494 -3.141592653589793  0.5235987755982987 2.617993877991494 -3.141592653589793  1.047197551196597 2.617993877991494 -3.141592653589793  1.570796326794897 2.617993877991494 -3.141592653589793  2.094395102393196 2.617993877991494 -3.141592653589793  2.617993877991494 2.617993877991494 -3.141592653589793  3.141592653589793 2.617993877991494 -3.141592653589793  -3.141592653589793 3.141592653589793 -3.141592653589793  -2.617993877991494 3.141592653589793 -3.141592653589793  -2.094395102393196 3.141592653589793 -3.141592653589793  -1.570796326794897 3.141592653589793 -3.141592653589793  -1.047197551196598 3.141592653589793 -3.141592653589793  -0.5235987755982987 3.141592653589793 -3.141592653589793  0 3.141592653589793 -3.141592653589793  0.5235987755982987 3.141592653589793 -3.141592653589793  1.047197551196597 3.141592653589793 -3.141592653589793  1.570796326794897 3.141592653589793 -3.141592653589793  2.094395102393196 3.141592653589793 -3.141592653589793  2.617993877991494 3.141592653589793 -3.141592653589793  3.141592653589793 3.141592653589793 -3.141592653589793  -3.141592653589793 -3.141592653589793 -2.617993877991494  -2.617993877991494 -3.141592653589793 -2.617993877991494  -2.094395102393196 -3.141592653589793 -2.617993877991494  -1.570796326794897 -3.141592653589793 -2.617993877991494  -1.047197551196598 -3.141592653589793 -2.617993877991494  -0.5235987755982987 -3.141592653589793 -2.617993877991494  0 -3.141592653589793 -2.617993877991494  0.5235987755982987 -3.141592653589793 -2.617993877991494  1.047197551196597 -3.141592653589793 -2.617993877991494  1.570796326794897 
[...]
<PointData  Scalars="f_176612"> 
<DataArray  type="Float64"  Name="f_176612"  format="ascii">6.8414291598133337e-02  5.7289554590231377e-02  1.0039445050900831e-03  -8.3099455657237586e-03  3.5877799261263498e-03  -4.1937819567201474e-02  -7.2042112929068758e-02  -3.6549989862481758e-02  -1.3233687717888307e-02  -7.1779193366299267e-03  -1.0523261769869089e-02  5.0343528159718487e-02  6.8414291598133337e-02  4.9072469631315528e-02  -6.2227920304961515e-01  -9.7934527544596595e-01  -1.0677470408534318e+00  -1.0347808353240426e+00  -7.1036215395873048e-01  -5.3521326524083986e-02  6.1728751430181283e-01  1.0488801157872587e+00  1.0654802862293324e+00  9.6702229921182115e-01  6.9853299544024594e-01  4.9072469631315528e-02  4.7005301703806207e-03  -1.0548786891612132e+00  -1.4719968191352231e+00  -1.5976707696583599e+00  -1.6101530858164850e+00  -9.6409238859142454e-01  7.9292843817615789e-03  9.6887196780292550e-01  1.4784991253768340e+00  1.6134773382188703e+00  1.6178404505103434e+00  1.0316871353257233e+00  4.7005301703806207e-03  1.3707093023306782e-03  -1.0537548479804484e+00  -1.6246824850273249e+00  -1.9220875067785197e+00  -1.6125542257727585e+00  -1.0613968529642066e+00  2.9761310120860010e-03  1.0725861019006120e+00  1.5947969513132911e+00  1.9097729512256589e+00  1.5907236005705088e+00  1.0708224317460040e+00  1.3707093023306782e-03  8.2336637692876774e-03  -9.6701344544118661e-01  -1.6174772024033157e+00  -1.5942154011181675e+00  -1.4756934861017494e+00  -1.0542981581420083e+00  5.1062834137879732e-03  1.0388989231292389e+00  1.6202223618496392e+00  1.6038841257261076e+00  1.4733831807162343e+00  9.6710473121652829e-01  8.2336637692876774e-03  -5.0848428403516450e-02  -7.1275678301049106e-01  -1.0292069681429350e+00  -1.0732339293681217e+00  -9.6553274691844004e-01  -6.1547043298226878e-01  4.7071699389705131e-02  7.0751156502507895e-01  9.6554537653506234e-01  1.0595516686944655e+00  1.0468188574929300e+00  6.1780419831561917e-01  -5.0848428403516450e-02  -5.7557569272195214e-02  -4.2872365584430104e-02  -4.5148863135992057e-03  -6.2805191327124218e-04  -2.4538638557920025e-03  5.0871215637250493e-02  6.0908620934992670e-02  5.1016838249904266e-02  -4.0853848284350888e-03  -5.7855439125489311e-03  -5.2056388680326504e-03  -4.8700696313641163e-02  -5.7557569272195214e-02  -5.7928985972530968e-02  6.1850571233062379e-01  1.0473465457943216e+00  1.0658609167124831e+00  9.7045524588831644e-01  7.0746379461697173e-01  4.0204962205778218e-02  -6.1645401233049590e-01  -9.7194501980514225e-01  -1.0692869442766160e+00  -1.0298023578580562e+00  -7.0258691101698167e-01  -5.7928985972530968e-02  5.1625404921749763e-03  9.7465581344147090e-01  1.4766522076200277e+00  1.6112035456402329e+00  1.6184332544561568e+00  1.0304374123711011e+00  5.5020420368586719e-03  -1.0549518251133287e+00  -1.4744605986316326e+00  -1.5990269007879592e+00  -1.6124087153787112e+00  -9.6239013381643423e-01  5.1625404921749763e-03  -1.3111218404694164e-03  1.0774576376898601e+00  1.6004038872054147e+00  1.9203143139301675e+00  1.5970833087803704e+00  1.0659946144469881e+00  -2.4303411245068285e-06  -1.0631079853439140e+00  -1.6144652464338203e+00  -1.9167395639429010e+00  -1.6110250255363410e+00  -1.0653875604234897e+00  -1.3111218404694164e-03  7.4169703282476141e-03  1.0333737635982654e+00  1.6191684543676708e+00  1.6055260291416535e+00  1.4771853210418957e+00  9.6530073845097020e-01  3.6295048917697852e-03  -9.7055471956429473e-01  -1.5988824517014515e+00  -1.5976319374776586e+00  -1.4726665322508488e+00  -1.0441827990299892e+00  7.4169703282476141e-03  3.6856059579292430e-02  7.1035305063266285e-01  9.6607966646814336e-01  1.0618486492543311e+00  1.0517051660058647e+00  6.2806060361398619e-01  -6.0686050542756817e-02  -7.0282673265461837e-01  -1.0308430946941867e+00  -1.0711321610843432e+00  -9.6967067293176512e-01  -6.1555586405605844e-01  3.6856059579292430e-02  6.8414291598133337e-02  5.7289554590231377e-02  1.0039445050900831e-03  -8.3099455657237586e-03  3.5877799261263498e-03  -4.1937819567201474e-02  -7.2042112929068758e-02  -3.6549989862481758e-02  -1.3233687717888307e-02  -7.1779193366299267e-03  -1.0523261769869089e-02  5.0343528159718487e-02  6.8414291598133337e-02  5.8688367158390715e-02  2.0217574315936352e-02  -2.4002832304827061e-02  -1.6086430339379738e-02  -3.4988877638504924e-02  -6.2635376783650637e-02  -4.3451471713013182e-02  -1.8159318620951489e-02  2.0731677371579580e-02  1.2690341431772346e-02  4.1165181778645782e-02  7.1781657197026408e-02  5.8688367158390715e-02  7.1864212598823328e-03  -5.5218415822936862e-01  -8.3999970041461125e-01  -9.5179954863006422e-01  -9.3258285698196242e-01  -5.7159778876068845e-01  -3.0805060524960216e-02  5.5101616967130840e-01  8.6104701171761078e-01  9.4488978841917104e-01  8.7813366525189707e-01  5.8294327687670666e-01  7.1864212598823328e-03  -2.1257850214979820e-02  -8.6366238389686090e-01  -1.3026818172745773e+00  -1.5088296638067829e+00  -1.4041006819066353e+00  -7.9879993666589777e-01  2.6450555039404831e-02  8.3718440675414263e-01  1.2975612500887530e+00  1.4980667543883288e+00  1.4043454313118691e+00  8.5565100931152738e-01  -2.1257850214979820e-02  -1.4360133642362015e-02  -9.4538412929188609e-01  -1.4975255315704179e+00  -1.6998344054943295e+00  -1.4684062709564822e+00  -9.2032061723041403e-01  2.2494471538435899e-02  9.4367867942595030e-01  1.5098180757326425e+00  1.7004051560203006e+00  1.4311745811882728e+00  9.3303882571501806e-01  -1.4360133642362015e-02  -4.0086985557488596e-02  -8.8877041446117433e-01  -1.4039388563063449e+00  -1.4283144338367597e+00  -1.3419097230219830e+00  -9.0171659699709195e-01  4.0721211392917914e-02  9.2746019369385047e-01  1.3958236909923902e+00  1.4556610647939330e+00  1.3316717678850349e+00  8.3138631794769158e-01  -4.0086985557488596e-02  -6.8953422911812390e-02  -5.8662143053601512e-01  -8.5084560022790345e-01  -9.3100741885497051e-01  -8.2927609359516996e-01  -4.6945657006145769e-01  6.2672796757074892e-02  5.7514914005680462e-01  8.0350328716119668e-01  9.2489647231567385e-01  9.0452278607522341e-01  4.6991242746626616e-01  -6.8953422911812390e-02  -5.4864530481026727e-02  -9.9381487128491902e-03  1.6615621692946475e-02  1.5031781445937628e-02  4.0583811519991631e-02  6.8017219409650206e-02  4.8508636963856544e-02  2.5629944725668496e-02  -2.3185918365434790e-02  -2.1115994904917976e-02  -3.9825676999112936e-02  -6.0551872481342146e-02  -5.4864530481026727e-02  -2.3777410825976730e-02  5.4394656343653502e-01  8.5977852548961420e-01  9.4615557287232288e-01  8.8854084218015006e-01  5.8794581407503088e-01  1.5410910178466981e-02  -5.5311476574320539e-01  -8.3421628790710933e-01  -9.4384361544039308e-01  -9.2899098493059951e-01  -5.7766913947290088e-01  -2.3777410825976730e-02  2.7049834495259592e-02  8.4123258175686844e-01  1.2964275215013017e+00  1.5019096828959340e+00  1.4041997428881667e+00  8.5368104986212279e-01  -2.6240876108942723e-02  -8.5839683582730708e-01  -1.2996621434247169e+00  -1.5101804491819659e+00  -1.3893375858967802e+00  -7.9936016895751294e-01  2.7049834495259592e-02  1.7043721186163804e-02  9.5163255080132036e-01  1.5082432634401783e+00  1.7068593070616285e+00  1.4229024836912718e+00  9.3558527889001564e-01  -2.0385541981825499e-02  -9.4591854204197634e-01  -1.4945883896620091e+00  -1.7018253091844409e+00  -1.4671269319131970e+00  -9.1982556392674442e-01  1.7043721186163804e-02  4.5803714394748229e-02  9.2772297857390507e-01  1.4001160489887681e+00  1.4595622903274521e+00  1.3401001898205329e+00  8.3288516766603427e-01  -4.5423552615224190e-02  -8.8307628337018595e-01  -1.4017844776133110e+00  -1.4362596795883014e+00  -1.3400498915485046e+00  -9.1005304871412562e-01  4.5803714394748229e-02  6.7659579947400711e-02  5.8659863749561014e-01  7.9376535627101508e-01  9.2205765954917829e-01  9.0469464585467496e-01  4.7276152391878423e-01  -6.0614452724409011e-02  -5.9267194934612266e-01  -8.4163218449247357e-01  -9.2364851559960337e-01  -8.3231962201069054e-01  -4.7456942983022943e-01  6.7659579947400711e-02  5.8688367158390715e-02  2.0217574315936352e-02  -2.4002832304827061e-02  -1.6086430339379738e-02  -3.4988877638504924e-02  -6.2635376783650637e-02  -4.3451471713013182e-02  -1.8159318620951489e-02  2.0731677371579580e-02  1.2690341431772346e-02  4.1165181778645782e-02  7.1781657197026408e-02  5.8688367158390715e-02  1.7937467767128592e-02  9.6680867529426156e-03  -1.8241789961480747e-02  -3.5091793083463892e-02  -4.3154173432670750e-02  -5.5724218185138626e-02  -2.3088655398531322e-02  4.3103194664855073e-03  2.8155333393695262e-02  3.0836207264261423e-02  4.4585622407072832e-02  2.6557407215514535e-02  1.7937467767128592e-02  9.5009583559659151e-03  -3.1450937737281415e-01  -5.1285750570932076e-01  -6.0063585104309014e-01  -5.3060313822453886e-01  -3.1305513876430807e-01  -2.4207609478005018e-03  3.0488804595506414e-01  5.1468862503253165e-01  6.0848203189276440e-01  5.3633421191913111e-01  3.1077413354002187e-01  9.5009583559659151e-03  -2.0335078611536550e-02  -5.1916303239320771e-01  -8.3543437507359308e-01  -9.6397537351055862e-01  -8.2379703627520617e-01  -4.4722702581363993e-01  1.2652696308512410e-02  5.1925676876639715e-01  8.3451778966606005e-01  9.5923164453408638e-01  8.2080106968731026e-01  4.6117649731525284e-01  -2.0335078611536550e-02  -3.6856926538786285e-02  -6.0201961993464714e-01  -9.6181890771036349e-01  -1.0505634174383134e+00  -8.9782959071342017e-01  -5.2643559875617307e-01  3.4799828688836076e-02  6.0029642036293751e-01  9.6500062518818708e-01  1.0460229494303146e+00  9.0413337400506999e-01  5.2650310627089392e-01  -3.6856926538786285e-02  -5.1643417735481173e-02  -5.3441291363330090e-01  -8.2000313322512164e-01  -9.0353337463419048e-01  -7.8578039850129200e-01  -4.4785107604520408e-01  4.9533037069579677e-02  5.3771798975323659e-01  8.2662201765316479e-01  8.9485239948677409e-01  7.7878356025556805e-01  4.4444194462105457e-01  -5.1643417735481173e-02  -3.5052580390928269e-02  -3.1131634110229506e-01  -4.6867145143553746e-01  -5.2055269549408401e-01  -4.3721011096660178e-01  -2.0542605667815372e-01  5.4763717427490421e-02  3.0504320150179381e-01  4.4683796539920423e-01  5.2383186282158845e-01  4.4947907622387395e-01  2.1123228993530066e-01  -3.5052580390928269e-02  -2.7834063102396708e-02  5.6705429110295001e-04  2.4201573550144191e-02  3.6188459486856672e-02  4.9699896659714499e-02  3.7911462255047518e-02  2.5844702841742621e-02  5.0966141176287142e-03  -2.2474469510039952e-02  -3.5791877012273217e-02  -4.3845458074474715e-02  -5.5836215127091374e-02  -2.7834063102396708e-02  -5.3248327627174984e-03  3.0263214098150376e-01  5.1067337094219911e-01  6.1097024215972229e-01  5.3839797124545807e-01  3.1542925226750729e-01  5.9462887198560715e-03  -3.0843501269739138e-01  -5.1489356490685856e-01  -5.9096293926061194e-01  -5.3491684829536557e-01  -3.0659071797581822e-01  -5.3248327627174984e-03  2.0745619783786383e-02  5.0422548405652645e-01  8.3713828206507690e-01  9.5795517977462874e-01  8.1628086203535211e-01  4.5976740111036624e-01  -2.6131462123864552e-02  -5.2026599899802428e-01  -8.3379853752652677e-01  -9.5893091336920944e-01  -8.2039253401339396e-01  -4.4454509961315380e-01  2.0745619783786383e-02  3.7408840376969253e-02  5.9903654626888336e-01  9.6193409902603944e-01  1.0545652767690987e+00  9.0008091589534622e-01  5.2271983598107674e-01  -4.4584357613568069e-02  -6.0760956238330488e-01  -9.5738397620130811e-01  -1.0505532272078000e+00  -8.9462298032378540e-01  -5.3022045117591954e-01  3.7408840376969253e-02  4.3201402442410913e-02  5.3765438191920478e-01  8.2386402045444529e-01  8.9756280329144222e-01  7.9155389970081247e-01  4.3733803846518315e-01  -5.1840019134367928e-02  -5.3153260097079957e-01  -8.2034076584112181e-01  -9.0120700176848545e-01  -7.8672253947879867e-01  -4.5058921769063248e-01  4.3201402442410913e-02  6.0804292074783661e-02  2.9801050803081680e-01  4.4778387712929807e-01  5.2681857791555342e-01  4.5050792511782234e-01  2.1172222129399768e-01  -3.0988058675092609e-02  -3.0890880412972899e-01  -4.6513786539920660e-01  -5.2267874886238974e-01  -4.3782243839102680e-01  -2.1648784704350169e-01  6.0804292074783661e-02  1.7937467767128592e-02  9.6680867529426156e-03  -1.8241789961480747e-02  -3.5091793083463892e-02  -4.3154173432670750e-02  -5.5724218185138626e-02  -2.3088655398531322e-02  4.3103194664855073e-03  2.8155333393695262e-02  3.0836207264261423e-02  4.4585622407072832e-02  2.6557407215514535e-02  1.7937467767128592e-02  5.4707737305058450e-03  -1.7557656231908251e-02  -3.2186474885457159e-02  -3.7700906345642868e-02  -3.3937897089822699e-02  -1.9379614734479435e-02  -9.0443293048368342e-05  1.0313301282266403e-02  3.1675708481685320e-02  4.8421092377051056e-02  3.0493547798657629e-02  2.1680054880294959e-02  5.4707737305058450e-03  -1.7277499359209369e-02  -4.6590134642138965e-02  -5.8085178815249348e-02  -5.0088051141439799e-02  -3.0002535718457381e-02  -2.4734736012753129e-03  2.2033857413760325e-02  4.9393701339639468e-02  6.4838256491789759e-02  3.9464291531749351e-02  1.5447108837600710e-02  7.7326903669903361e-03  -1.7277499359209369e-02  -3.7776740547156358e-02  -6.0612336003289621e-02  -5.9641810503271990e-02  -4.0281054422946425e-02  -6.1228466767724525e-04  2.1068326582993901e-02  3.7700467143159389e-02  4.0802245914043841e-02  6.2449567350456058e-02  4.2033699913188609e-02  -1.0401951507670586e-03  -1.0554168842089647e-02  -3.7776740547156358e-02  -4.4248731009282734e-02  -4.5555958457103751e-02  -3.8120567796931522e-02  -5.0175487409469732e-03  3.9151117288354825e-02  4.8244133309791805e-02  2.9748177681081685e-02  4.2458949187056678e-02  4.0624810470884787e-02  2.2100192667499482e-03  -3.5406524894112897e-02  -4.0103100278390376e-02  -4.4248731009282734e-02  -3.3162587746575774e-02  -1.0120488397744367e-02  -3.5723833115428858e-03  3.6730077087938448e-02  7.2346291391919143e-02  5.0908214295564178e-02  3.7471367465485385e-02  2.9214029574531432e-02  -2.0924785680277542e-03  -3.3659629431869592e-02  -6.2759052739389587e-02  -6.0690067873871205e-02  -3.3162587746575774e-02  -2.4176413393904084e-02  -2.6359211463417649e-03  1.5344199415907084e-02  4.4288760160999897e-02  6.2910667621311339e-02  4.5417949531528432e-02  2.3506385117291376e-02  4.8312274297656358e-03  -2.7884952760566274e-02  -4.4639716337219804e-02  -5.7619543349099675e-02  -4.5565598404007986e-02  -2.4176413393904084e-02  1.5216011547003606e-03  2.2870555678369403e-02  3.5562139726948168e-02  4.2377976358993943e-02  3.7688564945357057e-02  1.7080861054742321e-02  4.2273285517460011e-03  -1.5221094700164438e-02  -3.4602439082831962e-02  -3.1352370527079260e-02  -3.0146683199738889e-02  -3.0518712367511736e-02  1.5216011547003606e-03  1.8060209913130294e-02  4.3169032960063802e-02  5.9066590115292861e-02  4.7325331148740477e-02  1.6333339091166226e-02  2.4421897173074864e-03  -1.3255737975084125e-02  -4.4565513526604032e-02  -5.1766263734958108e-02  -3.5683883076807373e-02  -3.1101825084123777e-02  3.4972988782476435e-04  1.8060209913130294e-02  2.7894718350992997e-02  5.1452512104209973e-02  6.2082101582126403e-02  3.3559151500209335e-02  -7.0078935677722167e-03  -1.6286374695994494e-02  -4.0771097471546405e-02  -6.4188678042556221e-02  -5.7718094087486224e-02  -3.9866327658666260e-02  3.1595937627603562e-03  2.7571928235346124e-02  2.7894718350992997e-02  2.6166472184298285e-02  4.4574570551848686e-02  3.8754206587534153e-02  -2.0257502861139439e-03  -3.8247869558294283e-02  -5.1800484220357532e-02  -4.1581958692474726e-02  -4.3683119331503886e-02  -3.3825592849339225e-02  -3.6844309805321321e-04  4.7049793211417598e-02  4.3366561153153925e-02  2.6166472184298285e-02  3.7715067611660172e-02  3.3768927896640162e-02  3.5960147384355014e-03  -3.5866700317123391e-02  -6.1028327248833676e-02  -6.2463383117872986e-02  -4.6549664122166802e-02  -1.0395754979603839e-02  -1.9707466967338262e-03  3.5143032460189606e-02  5.7531502055808821e-02  4.9170970869195488e-02  3.7715067611660172e-02  2.2836963037463746e-02  -2.8845734029659502e-03  -2.5398312782871049e-02  -3.9750663936237093e-02  -5.1898226992061758e-02  -4.7135772229809365e-02  -1.6163685266733806e-02  -1.1309982288836445e-04  2.0915888113576697e-02  3.2957079123123151e-02  6.3711813809413695e-02  4.2650007151527260e-02  2.2836963037463746e-02  5.4707737305058450e-03  -1.7557656231908251e-02  -3.2186474885457159e-02  -3.7700906345642868e-02  -3.3937897089822699e-02  -1.9379614734479435e-02  -9.0443293048368342e-05  1.0313301282266403e-02  3.1675708481685320e-02  4.8421092377051056e-02  3.0493547798657629e-02  2.1680054880294959e-02  5.4707737305058450e-03  -2.4294034133402725e-02  -5.1552309445973415e-02  -5.0454265226551685e-02  -3.5757538100402282e-02  -2.8136183777161608e-02  6.5414960903967725e-03  1.7813605203835625e-02  4.3536403892862466e-02  5.4539830674077562e-02  3.9077659640992378e-02  2.2067779342093741e-02  6.4790734046259978e-03  -2.4294034133402725e-02  -3.5275683590715166e-02  2.1079321678217930e-01  4.5384763757336039e-01  5.2551826284322278e-01  4.5002230473187699e-01  3.0000162570497713e-01  5.8137512311013800e-02  -2.1643575411440566e-01  -4.4686006056744410e-01  -5.3361074790781426e-01  -4.6460474139369784e-01  -3.1027854435798019e-01  -3.5275683590715166e-02  -4.6998593247074574e-02  4.3476641971690833e-01  7.9127678249917310e-01  8.9867543645104431e-01  8.2327732099736528e-01  5.3792180197923345e-01  4.3373484612904203e-02  -4.5543295418380786e-01  -7.8602241128947536e-01  -9.0105712627612777e-01  -8.1577134214310054e-01  -5.3210819806820497e-01  -4.6998593247074574e-02  -3.7824068367142798e-02  5.2581595167284900e-01  8.9747842935858213e-01  1.0569800536843241e+00  9.6206516609206627e-01  5.9564308510108510e-01  2.4217789528592382e-02  -5.2904222875897500e-01  -8.9228318168515153e-01  -1.0489929970563081e+00  -9.5846743520999567e-01  -5.9936419653791173e-01  -3.7824068367142798e-02  -1.4955291861091317e-02  4.6176957211013187e-01  8.2307756753581873e-01  9.6632646632517938e-01  8.2886226419102937e-01  5.0471103629955294e-01  1.9580653702202577e-02  -4.4864055572997547e-01  -8.2819804915376904e-01  -9.6402507438424301e-01  -8.3342587443236305e-01  -5.1532335445759625e-01  -1.4955291861091317e-02  1.1064108364293834e-03  3.1107799851714185e-01  5.3294592997276369e-01  5.9916485524097429e-01  5.1350621331908586e-01  3.0306075924795489e-01  2.6667861621703505e-03  -3.0439551626832084e-01  -5.4441295908996035e-01  -6.0024506925834176e-01  -5.0757574866046873e-01  -3.1425417470578088e-01  1.1064108364293834e-03  2.3202672970787448e-02  4.2818782616042314e-02  4.5411757183376554e-02  3.5059872479185052e-02  2.9260203287967808e-02  6.6769288430493018e-04  -1.6991910325788590e-02  -5.2194369307375699e-02  -3.1572915949299597e-02  -2.0686658713313103e-02  -1.2560902049791493e-02  5.2624727940541815e-06  2.3202672970787448e-02  5.6506531972088485e-02  -2.1420908917211923e-01  -4.4414675970612633e-01  -5.2529495753722710e-01  -4.6694236414666251e-01  -3.1226887833024736e-01  -4.0275036727592979e-02  2.2232003358669836e-01  4.5658035295256605e-01  5.3099039117042457e-01  4.4681358722026959e-01  2.9190745896686143e-01  5.6506531972088485e-02  4.1284322032970507e-02  -4.4932017156061849e-01  -7.8536195505950368e-01  -9.0055785845363534e-01  -8.2347036733648737e-01  -5.3411166388929243e-01  -5.2459290135382752e-02  4.5065130264741199e-01  7.8937595972263785e-01  9.0519317486452411e-01  8.2034889110129172e-01  5.3917289258963663e-01  4.1284322032970507e-02  2.6045062696260717e-02  -5.2365492702594874e-01  -9.0555970678743913e-01  -1.0483997348600349e+00  -9.6493168430876075e-01  -6.0933576347478224e-01  -3.5963793675156203e-02  5.2855601861686063e-01  9.0010999677671399e-01  1.0590940661365247e+00  9.7290068339547509e-01  6.0107301633206900e-01  2.6045062696260717e-02  1.1371898195148561e-02  -4.5148191464659865e-01  -8.1895148533260531e-01  -9.5759060601886148e-01  -8.3534229344331901e-01  -5.2119862958872065e-01  -2.4644930173194815