<?xml version="1.0"?>
<VTKFile type="UnstructuredGrid"  version="0.1"  >
<UnstructuredGrid>
<Piece  NumberOfPoints="2197" NumberOfCells="10368">
<Points>
<DataArray  type="Float64"  NumberOfComponents="3"  format="ascii">-3.141592653589793 -3.141592653589793 -3.141592653589793  -2.617993877991494 -3.141592653589793 -3.141592653589793  -2.094395102393196 -3.141592653589793 -3.141592653589793  -1.570796326794897 -3.141592653589793 -3.141592653589793  -1.047197551196598 -3.141592653589793 -3.141592653589793  -0.5235987755982987 -3.141592653589793 -3.141592653589793  0 -3.141592653589793 -3.141592653589793  0.5235987755982987 -3.141592653589793 -3.141592653589793  1.047197551196597 -3.141592653589793 -3.141592653589793  1.570796326794897 -3.141592653589793 -3.141592653589793  2.094395102393196 -3.141592653589793 -3.141592653589793  2.617993877991494 -3.141592653589793 -3.141592653589793  3.141592653589793 -3.141592653589793 -3.141592653589793  -3.141592653589793 -2.617993877991494 -3.141592653589793  -2.617993877991494 -2.617993877991494 -3.141592653589793  -2.094395102393196 -2.617993877991494 -3.141592653589793  -1.570796326794897 -2.617993877991494 -3.141592653589793  -1.047197551196598 -2.617993877991494 -3.141592653589793  -0.5235987755982987 -2.617993877991494 -3.141592653589793  0 -2.617993877991494 -3.141592653589793  0.5235987755982987 -2.617993877991494 -3.141592653589793  1.047197551196597 -2.617993877991494 -3.141592653589793  1.570796326794897 -2.617993877991494 -3.141592653589793  2.094395102393196 -2.617993877991494 -3.141592653589793  2.617993877991494 -2.617993877991494 -3.141592653589793  3.141592653589793 -2.617993877991494 -3.141592653589793  -3.141592653589793 -2.094395102393196 -3.141592653589793  -2.617993877991494 -2.094395102393196 -3.141592653589793  -2.094395102393196 -2.094395102393196 -3.141592653589793  -1.570796326794897 -2.094395102393196 -3.141592653589793  -1.047197551196598 -2.094395102393196 -3.141592653589793  -0.5235987755982987 -2.094395102393196 -3.141592653589793  0 -2.094395102393196 -3.141592653589793  0.5235987755982987 -2.094395102393196 -3.141592653589793  1.047197551196597 -2.094395102393196 -3.141592653589793  1.570796326794897 -2.094395102393196 -3.141592653589793  2.094395102393196 -2.094395102393196 -3.141592653589793  2.617993877991494 -2.094395102393196 -3.141592653589793  3.141592653589793 -2.094395102393196 -3.141592653589793  -3.141592653589793 -1.570796326794897 -3.141592653589793  -2.617993877991494 -1.570796326794897 -3.141592653589793  -2.094395102393196 -1.570796326794897 -3.141592653589793  -1.570796326794897 -1.570796326794897 -3.141592653589793  -1.047197551196598 -1.570796326794897 -3.141592653589793  -0.5235987755982987 -1.570796326794897 -3.141592653589793  0 -1.570796326794897 -3.141592653589793  0.5235987755982987 -1.570796326794897 -3.141592653589793  1.047197551196597 -1.570796326794897 -3.141592653589793  1.570796326794897 -1.570796326794897 -3.141592653589793  2.094395102393196 -1.570796326794897 -3.141592653589793  2.617993877991494 -1.570796326794897 -3.141592653589793  3.141592653589793 -1.570796326794897 -3.141592653589793  -3.141592653589793 -1.047197551196598 -3.141592653589793  -2.617993877991494 -1.047197551196598 -3.141592653589793  -2.094395102393196 -1.047197551196598 -3.141592653589793  -1.570796326794897 -1.047197551196598 -3.141592653589793  -1.047197551196598 -1.047197551196598 -3.141592653589793  -0.5235987755982987 -1.047197551196598 -3.141592653589793  0 -1.047197551196598 -3.141592653589793  0.5235987755982987 -1.047197551196598 -3.141592653589793  1.047197551196597 -1.047197551196598 -3.141592653589793  1.570796326794897 -1.047197551196598 -3.141592653589793  2.094395102393196 -1.047197551196598 -3.141592653589793  2.617993877991494 -1.047197551196598 -3.141592653589793  3.141592653589793 -1.047197551196598 -3.141592653589793  -3.141592653589793 -0.5235987755982987 -3.141592653589793  -2.617993877991494 -0.5235987755982987 -3.141592653589793  -2.094395102393196 -0.5235987755982987 -3.141592653589793  -1.570796326794897 -0.5235987755982987 -3.141592653589793  -1.047197551196598 -0.5235987755982987 -3.141592653589793  -0.5235987755982987 -0.5235987755982987 -3.141592653589793  0 -0.5235987755982987 -3.141592653589793  0.5235987755982987 -0.5235987755982987 -3.141592653589793  1.047197551196597 -0.5235987755982987 -3.141592653589793  1.570796326794897 -0.5235987755982987 -3.141592653589793  2.094395102393196 -0.5235987755982987 -3.141592653589793  2.617993877991494 -0.5235987755982987 -3.141592653589793  3.141592653589793 -0.5235987755982987 -3.141592653589793  -3.141592653589793 0 -3.141592653589793  -2.617993877991494 0 -3.141592653589793  -2.094395102393196 0 -3.141592653589793  -1.570796326794897 0 -3.141592653589793  -1.047197551196598 0 -3.141592653589793  -0.5235987755982987 0 -3.141592653589793  0 0 -3.141592653589793  0.5235987755982987 0 -3.141592653589793  1.047197551196597 0 -3.141592653589793  1.570796326794897 0 -3.141592653589793  2.094395102393196 0 -3.141592653589793  2.617993877991494 0 -3.141592653589793  3.141592653589793 0 -3.141592653589793  -3.141592653589793 0.5235987755982987 -3.141592653589793  -2.617993877991494 0.5235987755982987 -3.141592653589793  -2.094395102393196 0.5235987755982987 -3.141592653589793  -1.570796326794897 0.5235987755982987 -3.141592653589793  -1.047197551196598 0.5235987755982987 -3.141592653589793  -0.5235987755982987 0.5235987755982987 -3.141592653589793  0 0.5235987755982987 -3.141592653589793  0.5235987755982987 0.5235987755982987 -3.141592653589793  1.047197551196597 0.5235987755982987 -3.141592653589793  1.570796326794897 0.5235987755982987 -3.141592653589793  2.094395102393196 0.5235987755982987 -3.141592653589793  2.617993877991494 0.5235987755982987 -3.141592653589793  3.141592653589793 0.5235987755982987 -3.141592653589793  -3.141592653589793 1.047197551196597 -3.141592653589793  -2.617993877991494 1.047197551196597 -3.141592653589793  -2.094395102393196 1.047197551196597 -3.141592653589793  -1.570796326794897 1.047197551196597 -3.141592653589793  -1.047197551196598 1.047197551196597 -3.141592653589793  -0.5235987755982987 1.047197551196597 -3.141592653589793  0 1.047197551196597 -3.141592653589793  0.5235987755982987 1.047197551196597 -3.141592653589793  1.047197551196597 1.047197551196597 -3.141592653589793  1.570796326794897 1.047197551196597 -3.141592653589793  2.094395102393196 1.047197551196597 -3.141592653589793  2.617993877991494 1.047197551196597 -3.141592653589793  3.141592653589793 1.047197551196597 -3.141592653589793  -3.141592653589793 1.570796326794897 -3.141592653589793  -2.617993877991494 1.570796326794897 -3.141592653589793  -2.094395102393196 1.570796326794897 -3.141592653589793  -1.570796326794897 1.570796326794897 -3.141592653589793  -1.047197551196598 1.570796326794897 -3.141592653589793  -0.5235987755982987 1.570796326794897 -3.141592653589793  0 1.570796326794897 -3.141592653589793  0.5235987755982987 1.570796326794897 -3.141592653589793  1.047197551196597 1.570796326794897 -3.141592653589793  1.570796326794897 1.570796326794897 -3.141592653589793  2.094395102393196 1.570796326794897 -3.141592653589793  2.617993877991494 1.570796326794897 -3.141592653589793  3.141592653589793 1.570796326794897 -3.141592653589793  -3.141592653589793 2.094395102393196 -3.141592653589793  -2.617993877991494 2.094395102393196 -3.141592653589793  -2.094395102393196 2.094395102393196 -3.141592653589793  -1.570796326794897 2.094395102393196 -3.141592653589793  -1.047197551196598 2.094395102393196 -3.141592653589793  -0.5235987755982987 2.094395102393196 -3.141592653589793  0 2.094395102393196 -3.141592653589793  0.5235987755982987 2.094395102393196 -3.141592653589793  1.047197551196597 2.094395102393196 -3.141592653589793  1.570796326794897 2.094395102393196 -3.141592653589793  2.094395102393196 2.094395102393196 -3.141592653589793  2.617993877991494 2.094395102393196 -3.141592653589793  3.141592653589793 2.094395102393196 -3.141592653589793  -3.141592653589793 2.617993877991494 -3.141592653589793  -2.617993877991494 2.617993877991494 -3.141592653589793  -2.094395102393196 2.617993877991494 -3.141592653589793  -1.570796326794897 2.617993877991494 -3.141592653589793  -1.047197551196598 2.617993877991494 -3.141592653589793  -0.5235987755982987 2.617993877991494 -3.141592653589793  0 2.617993877991494 -3.141592653589793  0.5235987755982987 2.617993877991494 -3.141592653589793  1.047197551196597 2.617993877991494 -3.141592653589793  1.570796326794897 2.617993877991494 -3.141592653589793  2.094395102393196 2.617993877991494 -3.141592653589793  2.617993877991494 2.617993877991494 -3.141592653589793  3.141592653589793 2.617993877991494 -3.141592653589793  -3.141592653589793 3.141592653589793 -3.141592653589793  -2.617993877991494 3.141592653589793 -3.141592653589793  -2.094395102393196 3.141592653589793 -3.141592653589793  -1.570796326794897 3.141592653589793 -3.141592653589793  -1.047197551196598 3.141592653589793 -3.141592653589793  -0.5235987755982987 3.141592653589793 -3.141592653589793  0 3.141592653589793 -3.141592653589793  0.5235987755982987 3.141592653589793 -3.141592653589793  1.047197551196597 3.141592653589793 -3.141592653589793  1.570796326794897 3.141592653589793 -3.141592653589793  2.094395102393196 3.141592653589793 -3.141592653589793  2.617993877991494 3.141592653589793 -3.141592653589793  3.141592653589793 3.141592653589793 -3.141592653589793  -3.141592653589793 -3.141592653589793 -2.617993877991494  -2.617993877991494 -3.141592653589793 -2.617993877991494  -2.094395102393196 -3.141592653589793 -2.617993877991494  -1.570796326794897 -3.141592653589793 -2.617993877991494  -1.047197551196598 -3.141592653589793 -2.617993877991494  -0.5235987755982987 -3.141592653589793 -2.617993877991494  0 -3.141592653589793 -2.617993877991494  0.5235987755982987 -3.141592653589793 -2.617993877991494  1.047197551196597 -3.141592653589793 -2.617993877991494  1.570796326794897 
[...]
<PointData  Scalars="f_114544"> 
<DataArray  type="Float64"  Name="f_114544"  format="ascii">6.2143184541298746e-02  4.7835168150998510e-02  1.6114752255146539e-02  -6.9224200429093873e-03  -5.0136565611128758e-03  -4.3072901023406503e-02  -6.2529401540266441e-02  -3.9313851115276924e-02  -1.8310224631490662e-02  -5.4882734874464748e-03  7.3370162071642172e-03  4.3129875727741095e-02  6.2143184541298746e-02  4.8114444460571823e-02  -5.5546182566493707e-01  -9.3503486474825948e-01  -1.0572720795062036e+00  -9.9337364506399783e-01  -6.3051228173400586e-01  -4.6637479152646807e-02  5.5576428557690716e-01  9.6176034172718938e-01  1.0611995628736126e+00  9.5847520081045823e-01  6.2153969703620693e-01  4.8114444460571823e-02  1.0716684287324524e-02  -9.6649265185006639e-01  -1.5403847635544132e+00  -1.7594416928392669e+00  -1.6050697860361254e+00  -9.5648387590998341e-01  -9.1286696388515401e-03  9.2768668396015608e-01  1.5432582742772873e+00  1.7590954008432393e+00  1.6116878124960916e+00  9.9270213922341743e-01  1.0716684287324524e-02  1.1588052798154743e-03  -1.0523827913139230e+00  -1.7666360114968895e+00  -2.0276966853192855e+00  -1.7582844395680184e+00  -1.0586399158030548e+00  3.0655671508917882e-03  1.0594513578477340e+00  1.7568044306862276e+00  2.0185764232828540e+00  1.7533910229029892e+00  1.0579519717212231e+00  1.1588052798154743e-03  -8.0164751274471764e-03  -9.5899752252395498e-01  -1.6105750462839219e+00  -1.7560509982639996e+00  -1.5437212276430046e+00  -9.6531583611647920e-01  1.1616705812651869e-02  9.9552759424956205e-01  1.6148987618479957e+00  1.7515236701806198e+00  1.5411178102058236e+00  9.2625735738648518e-01  -8.0164751274471764e-03  -4.4043070998866320e-02  -6.3191824854728362e-01  -9.9008432753884534e-01  -1.0609056683068012e+00  -9.2431749253391693e-01  -5.5322757675136636e-01  4.5792578991915987e-02  6.2901255973726933e-01  9.5560786984424251e-01  1.0590222986267757e+00  9.6080947557074592e-01  5.5472348767601076e-01  -4.4043070998866320e-02  -5.4573206549634323e-02  -4.3272802215784813e-02  -1.1569147942248160e-02  -3.6132612383784322e-04  1.3367642170617826e-02  4.2255041669873761e-02  5.7748328591313999e-02  4.2308325689695087e-02  1.3755025771596895e-02  -5.2634753844217428e-03  -1.1014023388751744e-02  -4.5341941248283127e-02  -5.4573206549634323e-02  -4.7744646070945196e-02  5.5494840498786335e-01  9.6066601983648892e-01  1.0632843222252701e+00  9.5857314583749331e-01  6.2865302712238369e-01  4.0801422006054321e-02  -5.5420664121176355e-01  -9.2863582191952643e-01  -1.0604457258977924e+00  -9.8790305693165037e-01  -6.2707723832193651e-01  -4.7744646070945196e-02  -1.2143105497099196e-02  9.3065564918819188e-01  1.5442361486848530e+00  1.7562133857926250e+00  1.6132661536019499e+00  9.8921743209443902e-01  1.3319875193760211e-02  -9.6610429695633260e-01  -1.5410644354720657e+00  -1.7603640804247795e+00  -1.6059610791951926e+00  -9.5536336580440451e-01  -1.2143105497099196e-02  1.2804225771341105e-03  1.0638057168482131e+00  1.7596463138939777e+00  2.0263200299979243e+00  1.7602877290912722e+00  1.0533428162686127e+00  1.2888110233716867e-03  -1.0601204595621241e+00  -1.7592183824255843e+00  -2.0234237691152139e+00  -1.7583886706001264e+00  -1.0609852740611543e+00  1.2804225771341105e-03  1.0770774193599080e-02  9.9113788374012746e-01  1.6138119747751323e+00  1.7528357511811141e+00  1.5408122400967323e+00  9.2844586768715875e-01  -1.3712622971646700e-02  -9.6011217557075723e-01  -1.5974700157138755e+00  -1.7582951920992711e+00  -1.5396174117899488e+00  -9.5840081601346394e-01  1.0770774193599080e-02  3.8843717372251847e-02  6.3037876661637127e-01  9.5865038738115116e-01  1.0575945372214843e+00  9.6521197701876393e-01  5.6077089309289652e-01  -4.9714052810410997e-02  -6.2557387865454450e-01  -9.9069400786452977e-01  -1.0606797277168452e+00  -9.2803087828645658e-01  -5.5377041874250776e-01  3.8843717372251847e-02  6.2143184541298746e-02  4.7835168150998510e-02  1.6114752255146539e-02  -6.9224200429093873e-03  -5.0136565611128758e-03  -4.3072901023406503e-02  -6.2529401540266441e-02  -3.9313851115276924e-02  -1.8310224631490662e-02  -5.4882734874464748e-03  7.3370162071642172e-03  4.3129875727741095e-02  6.2143184541298746e-02  5.3552723821128113e-02  2.1655482818871055e-02  -9.0817562274618045e-03  -1.8940187003142508e-02  -3.2286352083516892e-02  -5.7294874982671537e-02  -4.4220154146603963e-02  -2.3834203726478730e-02  1.2299353877084168e-02  2.0744840116596292e-02  4.0943493070848547e-02  5.9081592229400355e-02  5.3552723821128113e-02  1.5759602015608071e-02  -4.9459631440294655e-01  -8.2130234026486182e-01  -9.5105420280051023e-01  -8.7524633268466356e-01  -5.2600838722227672e-01  -2.8962626889142359e-02  4.9451360429489083e-01  8.2705004540143523e-01  9.4291804719233463e-01  8.5280551102574587e-01  5.3140988732302141e-01  1.5759602015608071e-02  -1.0218754097328423e-02  -8.3036147770406177e-01  -1.3649948432274892e+00  -1.5750464990337423e+00  -1.3965457714842879e+00  -8.0755648595600560e-01  1.1446796580710183e-02  8.1737750949219012e-01  1.3631499726050493e+00  1.5663516886856674e+00  1.4007597121692605e+00  8.3574423307290746e-01  -1.0218754097328423e-02  -2.1884622135063300e-02  -9.4452827886197532e-01  -1.5653390286110471e+00  -1.7761474333995404e+00  -1.5453376406434423e+00  -9.1008761266895866e-01  2.2920584745782215e-02  9.4749504776824711e-01  1.5760276486126110e+00  1.7775505065764492e+00  1.5291308258669174e+00  9.0843342784376191e-01  -2.1884622135063300e-02  -4.0592136354069178e-02  -8.5897211234997362e-01  -1.4010949750925361e+00  -1.5283863939564526e+00  -1.3480420220721931e+00  -8.1480729255526119e-01  3.6623952543042529e-02  8.7229720231926799e-01  1.3908287836781359e+00  1.5346532640825405e+00  1.3411061586215445e+00  7.9015064758402576e-01  -4.0592136354069178e-02  -5.6153576217247633e-02  -5.3348531547302558e-01  -8.3146095796743269e-01  -9.0986267835848378e-01  -7.8764663020449810e-01  -4.4130651926820097e-01  5.7433270109671912e-02  5.2837891326182718e-01  8.0950826321894220e-01  9.1490820846366661e-01  8.1765435837943967e-01  4.4005567079288260e-01  -5.6153576217247633e-02  -5.1662348141707087e-02  -1.6698056892748035e-02  7.9983519612308127e-03  2.3608808217188981e-02  3.9745553317500279e-02  5.6812647611124735e-02  4.8844470095052647e-02  2.4515416124980764e-02  -8.3455075777214248e-03  -2.1441368322777699e-02  -3.6702099921342837e-02  -5.5725469392560650e-02  -5.1662348141707087e-02  -2.5829434020694420e-02  4.8874957951416198e-01  8.2915772067042581e-01  9.4253862666696431e-01  8.6000848328663049e-01  5.3283358749700227e-01  1.9744809283991745e-02  -4.9523160049978410e-01  -8.1693070143953550e-01  -9.4710627111652368e-01  -8.7376753619000136e-01  -5.3053561819515105e-01  -2.5829434020694420e-02  1.3953602410686184e-02  8.2095891374774999e-01  1.3603648335766918e+00  1.5699648261163222e+00  1.4010894051440088e+00  8.3546829020703850e-01  -1.5595588112160158e-02  -8.2610866331886457e-01  -1.3620954403504386e+00  -1.5764134912618948e+00  -1.3855796710481751e+00  -8.0698328209679460e-01  1.3953602410686184e-02  1.7560608699103079e-02  9.5290136905830736e-01  1.5743392346148826e+00  1.7811354408187730e+00  1.5227058482195144e+00  9.1125681891850396e-01  -2.5549020609340736e-02  -9.4579247248183251e-01  -1.5643924666810924e+00  -1.7772299673732221e+00  -1.5439528168282721e+00  -9.0995011761825695e-01  1.7560608699103079e-02  4.0531289074864821e-02  8.7204128399305347e-01  1.3946473919114482e+00  1.5372890920347488e+00  1.3469390989967800e+00  7.9237347348426079e-01  -4.4878280569731158e-02  -8.5544525574734664e-01  -1.3975497802601877e+00  -1.5340348323935431e+00  -1.3457495544802729e+00  -8.2196547573513923e-01  4.0531289074864821e-02  6.0852171647853344e-02  5.3712748338198701e-01  8.0126916250238933e-01  9.1312879685398063e-01  8.1766454808109168e-01  4.3972513151247344e-01  -4.9275153621262134e-02  -5.3664689984272751e-01  -8.2501529007421015e-01  -9.0536972443827879e-01  -7.9098624363587688e-01  -4.4334287126489580e-01  6.0852171647853344e-02  5.3552723821128113e-02  2.1655482818871055e-02  -9.0817562274618045e-03  -1.8940187003142508e-02  -3.2286352083516892e-02  -5.7294874982671537e-02  -4.4220154146603963e-02  -2.3834203726478730e-02  1.2299353877084168e-02  2.0744840116596292e-02  4.0943493070848547e-02  5.9081592229400355e-02  5.3552723821128113e-02  2.1181053096246072e-02  3.4778185529176307e-03  -1.9597964911415057e-02  -3.9444763397793091e-02  -4.7079488341094267e-02  -5.0122798842396780e-02  -2.4814244178562733e-02  3.4680473365015043e-03  2.6386740117271646e-02  3.5934351280480552e-02  4.5743846594081712e-02  3.4621654897082250e-02  2.1181053096246072e-02  5.9645134244383407e-03  -2.9940537774303461e-01  -5.0272627959498717e-01  -5.8566519596775946e-01  -5.0577288006011323e-01  -3.0389373285968019e-01  1.8898427841026499e-03  2.9241175821002530e-01  5.0324245252010424e-01  5.8666046970253627e-01  5.1362595616906181e-01  2.9666436651550415e-01  5.9645134244383407e-03  -2.1788537986698088e-02  -5.0592578625098583e-01  -8.3985855954148192e-01  -9.5276509744123861e-01  -8.1469788786344099e-01  -4.5470232835894570e-01  1.5904823967685038e-02  5.0890062007233494e-01  8.3775092337257306e-01  9.5025217600277967e-01  8.1459953476940106e-01  4.5524435724461804e-01  -2.1788537986698088e-02  -3.9983232599146400e-02  -5.8249489235149277e-01  -9.5153606202625396e-01  -1.0592313755927238e+00  -8.9987089834569456e-01  -5.1237602012912387e-01  3.8829181061424557e-02  5.8446519953124720e-01  9.5474374151073915e-01  1.0554130833283497e+00  9.0220768400494133e-01  5.0962423053508765e-01  -3.9983232599146400e-02  -4.9980356343293231e-02  -5.1281477817598142e-01  -8.1438897457720560e-01  -9.0194018371820217e-01  -7.6848185108999856e-01  -4.2223226957843080e-01  5.1669555581676900e-02  5.1062649210941558e-01  8.1605762393463033e-01  8.9827866346575502e-01  7.6430965398905693e-01  4.2601163780530271e-01  -4.9980356343293231e-02  -4.0650696702860943e-02  -2.9730257353414191e-01  -4.6093482400954822e-01  -5.0453643380626279e-01  -4.2187109511219273e-01  -2.1110055248729062e-01  4.9392546363418617e-02  2.9973141945234705e-01  4.5410111637327050e-01  5.1094445378999831e-01  4.2285961202387484e-01  2.1500621297429032e-01  -4.0650696702860943e-02  -2.7847612415650522e-02  1.4916947870514505e-03  2.3195633540871393e-02  4.0410900041682594e-02  4.8540814272793865e-02  4.2712307026016270e-02  2.6154696872768904e-02  -5.3439909236962417e-04  -2.2308234019629898e-02  -3.9746861524977931e-02  -4.8408522278505159e-02  -4.9340122726100902e-02  -2.7847612415650522e-02  -4.9086085455644050e-05  2.9163714911031735e-01  5.0072567056029682e-01  5.8794805413730178e-01  5.1564004465432811e-01  2.9959886318075057e-01  2.5307280191854925e-03  -2.9433020904105150e-01  -5.0602042298770478e-01  -5.7856424791817229e-01  -5.0877505138933321e-01  -2.9979435817498190e-01  -4.9086085455644050e-05  2.1516073175009386e-02  4.9776982049640484e-01  8.4001108309073325e-01  9.4894820078474051e-01  8.1161383897127881e-01  4.5418739246439988e-01  -2.4222048652688000e-02  -5.0717477980027048e-01  -8.3765751335085625e-01  -9.5068133779873709e-01  -8.1115191227733296e-01  -4.5321465560016799e-01  2.1516073175009386e-02  4.0861927488665649e-02  5.8245741378401916e-01  9.5242010693022028e-01  1.0614216557034519e+00  9.0004986098011652e-01  5.0697430144858835e-01  -4.5964303187397727e-02  -5.8632359102852161e-01  -9.4907557498235762e-01  -1.0586938578581280e+00  -8.9780566573863929e-01  -5.1454509239915691e-01  4.0861927488665649e-02  4.7271976475322483e-02  5.1134603260047429e-01  8.1357698230751252e-01  8.9937791316046534e-01  7.7387677668727206e-01  4.2142146609516307e-01  -5.0491218502469529e-02  -5.0932693136030471e-01  -8.1382648833135329e-01  -9.0074152677308827e-01  -7.6871505369046733e-01  -4.2411888968155781e-01  4.7271976475322483e-02  5.3682246495871298e-02  2.9353815126173710e-01  4.5638660706022705e-01  5.1312998935378096e-01  4.2170146098707134e-01  2.1590693644506281e-01  -3.6838207101626046e-02  -2.9600968122732324e-01  -4.5959068161173239e-01  -5.0567733000071702e-01  -4.2172098965931204e-01  -2.1896042624524634e-01  5.3682246495871298e-02  2.1181053096246072e-02  3.4778185529176307e-03  -1.9597964911415057e-02  -3.9444763397793091e-02  -4.7079488341094267e-02  -5.0122798842396780e-02  -2.4814244178562733e-02  3.4680473365015043e-03  2.6386740117271646e-02  3.5934351280480552e-02  4.5743846594081712e-02  3.4621654897082250e-02  2.1181053096246072e-02  3.7944820955480608e-03  -2.0592784916710415e-02  -3.8648266711361977e-02  -4.9241618588811660e-02  -4.0352161202516092e-02  -2.2253220691089603e-02  -2.6056296051595637e-04  1.7502597723052196e-02  3.7824945691828350e-02  5.1522199281170036e-02  3.6327002851040360e-02  2.5380606572805879e-02  3.7944820955480608e-03  -2.1982596376111146e-02  -4.4547448143224908e-02  -5.5864972865151005e-02  -4.7233400466370354e-02  -2.6353502796780778e-02  -1.5983567028721066e-03  2.3404542712824782e-02  4.6591655709504590e-02  5.5670492670821747e-02  3.9371162081262859e-02  2.1348240625965801e-02  5.0554029272024672e-03  -2.1982596376111146e-02  -4.1826692873838549e-02  -5.3014046995126879e-02  -4.8571769765408751e-02  -3.0924445798083209e-02  -6.6107449767613207e-04  2.0343266414336342e-02  4.2813701514888836e-02  4.4402479012021101e-02  5.1055418095920645e-02  3.2631489324599194e-02  -1.0378985046329812e-03  -1.7638891540856225e-02  -4.1826692873838549e-02  -4.8907738481118339e-02  -4.3418400014590505e-02  -3.0398734143958543e-02  -3.1557866534819572e-03  3.0110154114498473e-02  4.6587173464890677e-02  4.3597346390736716e-02  4.2186401445687458e-02  3.1071408069274369e-02  1.0816475634906504e-03  -2.8181776149421387e-02  -3.9912409890512993e-02  -4.8907738481118339e-02  -3.8408944162231194e-02  -1.7811064980660190e-02  -2.5291999219056614e-03  2.9280013019954056e-02  5.7050550686873071e-02  5.1207436405074934e-02  4.2964256399477471e-02  2.5004576443885065e-02  -9.8099209114176143e-04  -2.6208785020285209e-02  -5.0658102266245383e-02  -5.3508265483887756e-02  -3.8408944162231194e-02  -2.7258888837895883e-02  -1.7112748246414784e-03  2.1113338138386218e-02  4.2900336897147805e-02  5.4943456192090796e-02  4.3805349816807615e-02  2.4381523897093128e-02  3.8192970000728447e-03  -2.4761213576718545e-02  -4.3868908979499258e-02  -5.5538602535330259e-02  -4.3944422294748348e-02  -2.7258888837895883e-02  1.1588775261927541e-03  2.6398712441895431e-02  3.9743594578488896e-02  4.7538914502363132e-02  4.1625775402192706e-02  2.1919841029939820e-02  2.9755873653484846e-03  -1.9646199927408212e-02  -4.0210655187882506e-02  -4.5635106046516417e-02  -3.7430147424774157e-02  -2.9523273581165597e-02  1.1588775261927541e-03  2.0762802529003654e-02  4.2364404141314448e-02  5.1388727879082108e-02  4.5804124647491277e-02  2.1564448932529061e-02  1.7258173100808902e-03  -1.9212964223050650e-02  -4.3026451136430291e-02  -5.2008450793840678e-02  -3.7922768393534194e-02  -2.6541015391150335e-02  4.0267247754194113e-04  2.0762802529003654e-02  3.6658231664836269e-02  5.0607003716615202e-02  5.0957419357936913e-02  2.6919895058354400e-02  -5.0216839681930265e-03  -2.1598463303052970e-02  -4.3801478726501614e-02  -5.6136179347120646e-02  -4.7748754189913013e-02  -3.0465893141676248e-02  2.2473403795889722e-03  2.4508791254100409e-02  3.6658231664836269e-02  4.1193859057845728e-02  4.3690662401412984e-02  2.9782868961652456e-02  -1.2407247009726858e-03  -2.9962324617007111e-02  -4.8162091232669964e-02  -4.6563475647496300e-02  -4.3037747643434335e-02  -2.7191800836481109e-02  1.6978890381766677e-04  3.4694588707353223e-02  4.3423682557447801e-02  4.1193859057845728e-02  4.2801108158401172e-02  2.8794954317222975e-02  2.1826437534308652e-03  -2.7768850331115161e-02  -5.0214405725176943e-02  -5.4454169423544793e-02  -4.7308973315634877e-02  -1.7473405760875919e-02  -1.2370872442516582e-03  2.8846116382994919e-02  4.7743100244276471e-02  4.9719307245463910e-02  4.2801108158401172e-02  2.3970605412136303e-02  -1.9296649656211588e-03  -2.2958162774364636e-02  -4.0835798446414280e-02  -5.1232721738734381e-02  -4.4569159518360740e-02  -2.1777892746700112e-02  2.5828983755536874e-04  2.4599567068493880e-02  3.6031542303104937e-02  5.4608943825609838e-02  4.1690919411362284e-02  2.3970605412136303e-02  3.7944820955480608e-03  -2.0592784916710415e-02  -3.8648266711361977e-02  -4.9241618588811660e-02  -4.0352161202516092e-02  -2.2253220691089603e-02  -2.6056296051595637e-04  1.7502597723052196e-02  3.7824945691828350e-02  5.1522199281170036e-02  3.6327002851040360e-02  2.5380606572805879e-02  3.7944820955480608e-03  -2.5518187988846718e-02  -4.6379387097946721e-02  -5.2535360122702435e-02  -3.9814187685061377e-02  -2.6128310074116493e-02  9.4597318886661963e-04  2.0466885419802364e-02  4.5843841712547656e-02  5.0750394216326343e-02  4.4016216086142944e-02  2.2017869894551081e-02  5.6379258691589664e-03  -2.5518187988846718e-02  -4.0656336055270512e-02  2.1484856894138141e-01  4.2538908622221416e-01  5.1107466534735646e-01  4.5676263133357081e-01  2.9542143169315027e-01  5.2593066939664479e-02  -2.1851505602900373e-01  -4.2741716133567725e-01  -5.1359302329165890e-01  -4.5816863272014818e-01  -2.9693312139907135e-01  -4.0656336055270512e-02  -4.6502936818338288e-02  4.2070649211510192e-01  7.7157460104521969e-01  9.0059709653433417e-01  8.1433486690487633e-01  5.1156247305554858e-01  4.6313028424139507e-02  -4.2728204203955805e-01  -7.6834707616480902e-01  -9.0044997444378705e-01  -8.1168377905629618e-01  -5.1123249556903028e-01  -4.6502936818338288e-02  -4.1008290746785296e-02  5.0686518642911804e-01  8.9824960363890405e-01  1.0635096529749444e+00  9.5273308537174550e-01  5.8012637805806078e-01  3.2298936325787543e-02  -5.1385897147107229e-01  -8.9602994242653844e-01  -1.0580132224999745e+00  -9.4891353951408097e-01  -5.8093016035080602e-01  -4.1008290746785296e-02  -1.7658185951408282e-02  4.5605413884961316e-01  8.1671744561495152e-01  9.5488545587285190e-01  8.3412341400599010e-01  4.9821312020529301e-01  2.1515816438663418e-02  -4.5645224911307081e-01  -8.1589596222253680e-01  -9.5424213187854545e-01  -8.3691713642874743e-01  -5.0397745084358059e-01  -1.7658185951408282e-02  -5.8044970959387804e-04  2.9766876875111992e-01  5.1088616722087132e-01  5.8052022688326155e-01  5.0230819355376044e-01  2.9259053729089352e-01  4.3679391637219964e-03  -2.9890052229253433e-01  -5.1528051688614507e-01  -5.8407037694409358e-01  -5.0148343322773548e-01  -2.9832343523671317e-01  -5.8044970959387804e-04  2.5164843204232228e-02  4.5509243130249157e-02  4.5878132527924491e-02  3.9947937654844286e-02  2.6340108201573710e-02  2.0497020681102688e-03  -2.1028915055876007e-02  -4.5418953528092637e-02  -4.2133311030120336e-02  -2.8471599988014244e-02  -1.7259019682357730e-02  -3.2124827128795657e-03  2.5164843204232228e-02  5.1139540871902117e-02  -2.1706244183336124e-01  -4.2713656167568143e-01  -5.0606996658111092e-01  -4.6084371326671325e-01  -2.9866146971296981e-01  -4.2465362668450600e-02  2.1909409582505490e-01  4.2937477470742708e-01  5.1262063016006876e-01  4.5542340080508592e-01  2.9046245790649194e-01  5.1139540871902117e-02  4.5631948818275439e-02  -4.2328238370096422e-01  -7.6766898249047610e-01  -8.9995942987792732e-01  -8.1585097149664387e-01  -5.1160001616198403e-01  -5.1758798945210016e-02  4.3185064782333554e-01  7.6964500903578392e-01  9.0571223681396285e-01  8.1195425394803944e-01  5.1240243396363505e-01  4.5631948818275439e-02  3.2440086365419674e-02  -5.0942934111356186e-01  -9.0485752039991163e-01  -1.0581713922823337e+00  -9.5291599261247362e-01  -5.8668094318316544e-01  -4.0332992757371795e-02  5.0988559413157719e-01  9.0093254734208306e-01  1.0638837542761457e+00  9.6068525212472755e-01  5.8435388096650709e-01  3.2440086365419674e-02  1.5794209731183451e-02  -4.5833302488041999e-01  -8.1083097230054257e-01  -9.5004891629230614e-01  -8.3979605127525669e-01  -5.0725893738899419e-01  -2.45171508537272