<?xml version="1.0"?>
<VTKFile type="UnstructuredGrid"  version="0.1"  >
<UnstructuredGrid>
<Piece  NumberOfPoints="2197" NumberOfCells="10368">
<Points>
<DataArray  type="Float64"  NumberOfComponents="3"  format="ascii">-3.141592653589793 -3.141592653589793 -3.141592653589793  -2.617993877991494 -3.141592653589793 -3.141592653589793  -2.094395102393196 -3.141592653589793 -3.141592653589793  -1.570796326794897 -3.141592653589793 -3.141592653589793  -1.047197551196598 -3.141592653589793 -3.141592653589793  -0.5235987755982987 -3.141592653589793 -3.141592653589793  0 -3.141592653589793 -3.141592653589793  0.5235987755982987 -3.141592653589793 -3.141592653589793  1.047197551196597 -3.141592653589793 -3.141592653589793  1.570796326794897 -3.141592653589793 -3.141592653589793  2.094395102393196 -3.141592653589793 -3.141592653589793  2.617993877991494 -3.141592653589793 -3.141592653589793  3.141592653589793 -3.141592653589793 -3.141592653589793  -3.141592653589793 -2.617993877991494 -3.141592653589793  -2.617993877991494 -2.617993877991494 -3.141592653589793  -2.094395102393196 -2.617993877991494 -3.141592653589793  -1.570796326794897 -2.617993877991494 -3.141592653589793  -1.047197551196598 -2.617993877991494 -3.141592653589793  -0.5235987755982987 -2.617993877991494 -3.141592653589793  0 -2.617993877991494 -3.141592653589793  0.5235987755982987 -2.617993877991494 -3.141592653589793  1.047197551196597 -2.617993877991494 -3.141592653589793  1.570796326794897 -2.617993877991494 -3.141592653589793  2.094395102393196 -2.617993877991494 -3.141592653589793  2.617993877991494 -2.617993877991494 -3.141592653589793  3.141592653589793 -2.617993877991494 -3.141592653589793  -3.141592653589793 -2.094395102393196 -3.141592653589793  -2.617993877991494 -2.094395102393196 -3.141592653589793  -2.094395102393196 -2.094395102393196 -3.141592653589793  -1.570796326794897 -2.094395102393196 -3.141592653589793  -1.047197551196598 -2.094395102393196 -3.141592653589793  -0.5235987755982987 -2.094395102393196 -3.141592653589793  0 -2.094395102393196 -3.141592653589793  0.5235987755982987 -2.094395102393196 -3.141592653589793  1.047197551196597 -2.094395102393196 -3.141592653589793  1.570796326794897 -2.094395102393196 -3.141592653589793  2.094395102393196 -2.094395102393196 -3.141592653589793  2.617993877991494 -2.094395102393196 -3.141592653589793  3.141592653589793 -2.094395102393196 -3.141592653589793  -3.141592653589793 -1.570796326794897 -3.141592653589793  -2.617993877991494 -1.570796326794897 -3.141592653589793  -2.094395102393196 -1.570796326794897 -3.141592653589793  -1.570796326794897 -1.570796326794897 -3.141592653589793  -1.047197551196598 -1.570796326794897 -3.141592653589793  -0.5235987755982987 -1.570796326794897 -3.141592653589793  0 -1.570796326794897 -3.141592653589793  0.5235987755982987 -1.570796326794897 -3.141592653589793  1.047197551196597 -1.570796326794897 -3.141592653589793  1.570796326794897 -1.570796326794897 -3.141592653589793  2.094395102393196 -1.570796326794897 -3.141592653589793  2.617993877991494 -1.570796326794897 -3.141592653589793  3.141592653589793 -1.570796326794897 -3.141592653589793  -3.141592653589793 -1.047197551196598 -3.141592653589793  -2.617993877991494 -1.047197551196598 -3.141592653589793  -2.094395102393196 -1.047197551196598 -3.141592653589793  -1.570796326794897 -1.047197551196598 -3.141592653589793  -1.047197551196598 -1.047197551196598 -3.141592653589793  -0.5235987755982987 -1.047197551196598 -3.141592653589793  0 -1.047197551196598 -3.141592653589793  0.5235987755982987 -1.047197551196598 -3.141592653589793  1.047197551196597 -1.047197551196598 -3.141592653589793  1.570796326794897 -1.047197551196598 -3.141592653589793  2.094395102393196 -1.047197551196598 -3.141592653589793  2.617993877991494 -1.047197551196598 -3.141592653589793  3.141592653589793 -1.047197551196598 -3.141592653589793  -3.141592653589793 -0.5235987755982987 -3.141592653589793  -2.617993877991494 -0.5235987755982987 -3.141592653589793  -2.094395102393196 -0.5235987755982987 -3.141592653589793  -1.570796326794897 -0.5235987755982987 -3.141592653589793  -1.047197551196598 -0.5235987755982987 -3.141592653589793  -0.5235987755982987 -0.5235987755982987 -3.141592653589793  0 -0.5235987755982987 -3.141592653589793  0.5235987755982987 -0.5235987755982987 -3.141592653589793  1.047197551196597 -0.5235987755982987 -3.141592653589793  1.570796326794897 -0.5235987755982987 -3.141592653589793  2.094395102393196 -0.5235987755982987 -3.141592653589793  2.617993877991494 -0.5235987755982987 -3.141592653589793  3.141592653589793 -0.5235987755982987 -3.141592653589793  -3.141592653589793 0 -3.141592653589793  -2.617993877991494 0 -3.141592653589793  -2.094395102393196 0 -3.141592653589793  -1.570796326794897 0 -3.141592653589793  -1.047197551196598 0 -3.141592653589793  -0.5235987755982987 0 -3.141592653589793  0 0 -3.141592653589793  0.5235987755982987 0 -3.141592653589793  1.047197551196597 0 -3.141592653589793  1.570796326794897 0 -3.141592653589793  2.094395102393196 0 -3.141592653589793  2.617993877991494 0 -3.141592653589793  3.141592653589793 0 -3.141592653589793  -3.141592653589793 0.5235987755982987 -3.141592653589793  -2.617993877991494 0.5235987755982987 -3.141592653589793  -2.094395102393196 0.5235987755982987 -3.141592653589793  -1.570796326794897 0.5235987755982987 -3.141592653589793  -1.047197551196598 0.5235987755982987 -3.141592653589793  -0.5235987755982987 0.5235987755982987 -3.141592653589793  0 0.5235987755982987 -3.141592653589793  0.5235987755982987 0.5235987755982987 -3.141592653589793  1.047197551196597 0.5235987755982987 -3.141592653589793  1.570796326794897 0.5235987755982987 -3.141592653589793  2.094395102393196 0.5235987755982987 -3.141592653589793  2.617993877991494 0.5235987755982987 -3.141592653589793  3.141592653589793 0.5235987755982987 -3.141592653589793  -3.141592653589793 1.047197551196597 -3.141592653589793  -2.617993877991494 1.047197551196597 -3.141592653589793  -2.094395102393196 1.047197551196597 -3.141592653589793  -1.570796326794897 1.047197551196597 -3.141592653589793  -1.047197551196598 1.047197551196597 -3.141592653589793  -0.5235987755982987 1.047197551196597 -3.141592653589793  0 1.047197551196597 -3.141592653589793  0.5235987755982987 1.047197551196597 -3.141592653589793  1.047197551196597 1.047197551196597 -3.141592653589793  1.570796326794897 1.047197551196597 -3.141592653589793  2.094395102393196 1.047197551196597 -3.141592653589793  2.617993877991494 1.047197551196597 -3.141592653589793  3.141592653589793 1.047197551196597 -3.141592653589793  -3.141592653589793 1.570796326794897 -3.141592653589793  -2.617993877991494 1.570796326794897 -3.141592653589793  -2.094395102393196 1.570796326794897 -3.141592653589793  -1.570796326794897 1.570796326794897 -3.141592653589793  -1.047197551196598 1.570796326794897 -3.141592653589793  -0.5235987755982987 1.570796326794897 -3.141592653589793  0 1.570796326794897 -3.141592653589793  0.5235987755982987 1.570796326794897 -3.141592653589793  1.047197551196597 1.570796326794897 -3.141592653589793  1.570796326794897 1.570796326794897 -3.141592653589793  2.094395102393196 1.570796326794897 -3.141592653589793  2.617993877991494 1.570796326794897 -3.141592653589793  3.141592653589793 1.570796326794897 -3.141592653589793  -3.141592653589793 2.094395102393196 -3.141592653589793  -2.617993877991494 2.094395102393196 -3.141592653589793  -2.094395102393196 2.094395102393196 -3.141592653589793  -1.570796326794897 2.094395102393196 -3.141592653589793  -1.047197551196598 2.094395102393196 -3.141592653589793  -0.5235987755982987 2.094395102393196 -3.141592653589793  0 2.094395102393196 -3.141592653589793  0.5235987755982987 2.094395102393196 -3.141592653589793  1.047197551196597 2.094395102393196 -3.141592653589793  1.570796326794897 2.094395102393196 -3.141592653589793  2.094395102393196 2.094395102393196 -3.141592653589793  2.617993877991494 2.094395102393196 -3.141592653589793  3.141592653589793 2.094395102393196 -3.141592653589793  -3.141592653589793 2.617993877991494 -3.141592653589793  -2.617993877991494 2.617993877991494 -3.141592653589793  -2.094395102393196 2.617993877991494 -3.141592653589793  -1.570796326794897 2.617993877991494 -3.141592653589793  -1.047197551196598 2.617993877991494 -3.141592653589793  -0.5235987755982987 2.617993877991494 -3.141592653589793  0 2.617993877991494 -3.141592653589793  0.5235987755982987 2.617993877991494 -3.141592653589793  1.047197551196597 2.617993877991494 -3.141592653589793  1.570796326794897 2.617993877991494 -3.141592653589793  2.094395102393196 2.617993877991494 -3.141592653589793  2.617993877991494 2.617993877991494 -3.141592653589793  3.141592653589793 2.617993877991494 -3.141592653589793  -3.141592653589793 3.141592653589793 -3.141592653589793  -2.617993877991494 3.141592653589793 -3.141592653589793  -2.094395102393196 3.141592653589793 -3.141592653589793  -1.570796326794897 3.141592653589793 -3.141592653589793  -1.047197551196598 3.141592653589793 -3.141592653589793  -0.5235987755982987 3.141592653589793 -3.141592653589793  0 3.141592653589793 -3.141592653589793  0.5235987755982987 3.141592653589793 -3.141592653589793  1.047197551196597 3.141592653589793 -3.141592653589793  1.570796326794897 3.141592653589793 -3.141592653589793  2.094395102393196 3.141592653589793 -3.141592653589793  2.617993877991494 3.141592653589793 -3.141592653589793  3.141592653589793 3.141592653589793 -3.141592653589793  -3.141592653589793 -3.141592653589793 -2.617993877991494  -2.617993877991494 -3.141592653589793 -2.617993877991494  -2.094395102393196 -3.141592653589793 -2.617993877991494  -1.570796326794897 -3.141592653589793 -2.617993877991494  -1.047197551196598 -3.141592653589793 -2.617993877991494  -0.5235987755982987 -3.141592653589793 -2.617993877991494  0 -3.141592653589793 -2.617993877991494  0.5235987755982987 -3.141592653589793 -2.617993877991494  1.047197551196597 -3.141592653589793 -2.617993877991494  1.570796326794897 
[...]
<PointData  Scalars="f_50588"> 
<DataArray  type="Float64"  Name="f_50588"  format="ascii">5.3177197593231466e-02  4.4371139882339483e-02  2.2970365603606314e-02  -7.8090317623459202e-04  -1.9412448910167343e-02  -4.2848582154809994e-02  -5.2277188177428643e-02  -4.1935223790377937e-02  -2.4513419250468915e-02  -1.7204197009610528e-03  2.0285447080696344e-02  4.1386394056229028e-02  5.3177197593231466e-02  4.5789175094815657e-02  -5.0987112077939178e-01  -9.1188890510331999e-01  -1.0667656227927202e+00  -9.5503324827085312e-01  -5.8302390161814177e-01  -4.4052857323434898e-02  5.1072382091753576e-01  9.1403221611054208e-01  1.0692010947429109e+00  9.5108157788948333e-01  5.7864776183288424e-01  4.5789175094815657e-02  2.0686657858343158e-02  -9.1509269884790345e-01  -1.5839357581112841e+00  -1.8366805639385937e+00  -1.6119925050611503e+00  -9.5009418773607657e-01  -2.0434654238329471e-02  9.0885440186879662e-01  1.5837083829674110e+00  1.8364862510074804e+00  1.6149351355450541e+00  9.5604653377475368e-01  2.0686657858343158e-02  -6.7441699334567888e-04  -1.0663832862934302e+00  -1.8392613298234815e+00  -2.1155330766981639e+00  -1.8361671763679412e+00  -1.0682442600619033e+00  3.2996598758303803e-05  1.0668695392750283e+00  1.8358649764129429e+00  2.1111106557582242e+00  1.8338894966322989e+00  1.0660938654684533e+00  -6.7441699334567888e-04  -2.0381308954209670e-02  -9.5032398370102245e-01  -1.6150585336970846e+00  -1.8350298188088441e+00  -1.5846272226358609e+00  -9.1496719619759925e-01  2.1168335684740452e-02  9.5624033353201210e-01  1.6172202626918373e+00  1.8328453109470075e+00  1.5834303256370210e+00  9.0846152764830201e-01  -2.0381308954209670e-02  -4.2343947377536627e-02  -5.8398003217012528e-01  -9.5417038732401371e-01  -1.0672222037921435e+00  -9.0808014490386024e-01  -5.0915678344757631e-01  4.4168088764977388e-02  5.8240019148436539e-01  9.4866849414536725e-01  1.0696759911518068e+00  9.1367060304944481e-01  5.0924925692483702e-01  -4.2343947377536627e-02  -4.9464177849268154e-02  -4.2515765589404189e-02  -2.1745445754725905e-02  2.8204580365467674e-04  2.3609224641872126e-02  4.0610817665722589e-02  5.1595956906936108e-02  4.0713558446526063e-02  2.3901434207593560e-02  -1.0802900742837487e-03  -2.1455355046679590e-02  -4.3256148334241247e-02  -4.9464177849268154e-02  -4.3191531493061368e-02  5.0842301515310162e-01  9.1415314541481796e-01  1.0714685220821318e+00  9.5025889506695149e-01  5.8225260553529090e-01  4.1926039397932387e-02  -5.0971249727584123e-01  -9.0963489588655377e-01  -1.0678140422314046e+00  -9.5244170587655919e-01  -5.8271871711181122e-01  -4.3191531493061368e-02  -2.2857811124676938e-02  9.1078441177444691e-01  1.5848084693837181e+00  1.8342291596808149e+00  1.6167335910286065e+00  9.5310133465820668e-01  2.1737411129004094e-02  -9.1543564058940952e-01  -1.5826584344976491e+00  -1.8378598775350694e+00  -1.6113853694397258e+00  -9.4974644509916006e-01  -2.2857811124676938e-02  5.1846641909974881e-04  1.0690188357066817e+00  1.8360570689849487e+00  2.1149243332922998e+00  1.8383551413698191e+00  1.0626799322779510e+00  8.2732399472243434e-04  -1.0691423403868170e+00  -1.8365312685854804e+00  -2.1133169316872027e+00  -1.8369951793717134e+00  -1.0684946047142918e+00  5.1846641909974881e-04  1.9482384165870326e-02  9.5359040767005310e-01  1.6171972518856890e+00  1.8334243698468513e+00  1.5818330527058952e+00  9.1171618431024970e-01  -2.4055715006429688e-02  -9.5097003026181337e-01  -1.6088119316620919e+00  -1.8363593848547748e+00  -1.5818924753866301e+00  -9.1288454424452914e-01  1.9482384165870326e-02  4.1207550596190405e-02  5.8389335864542369e-01  9.5091258622376551e-01  1.0672334472437206e+00  9.1630070143319642e-01  5.1126887855418857e-01  -4.4485442732869501e-02  -5.8102826233446914e-01  -9.5402657785402922e-01  -1.0679662944812092e+00  -9.0945080752832153e-01  -5.0912772757968228e-01  4.1207550596190405e-02  5.3177197593231466e-02  4.4371139882339483e-02  2.2970365603606314e-02  -7.8090317623459202e-04  -1.9412448910167343e-02  -4.2848582154809994e-02  -5.2277188177428643e-02  -4.1935223790377937e-02  -2.4513419250468915e-02  -1.7204197009610528e-03  2.0285447080696344e-02  4.1386394056229028e-02  5.3177197593231466e-02  4.6216532878247202e-02  2.2839523178209000e-02  -2.7179686239099297e-04  -2.2938422944284099e-02  -3.9169814181337297e-02  -5.0287714856924029e-02  -4.2295697166120534e-02  -2.5858400894181548e-02  3.4799610262183167e-03  2.4669524258261202e-02  4.2713635807503321e-02  5.1690476562676148e-02  4.6216532878247202e-02  2.1811150981610541e-02  -4.6068556681522516e-01  -8.1249643282203499e-01  -9.4816273246520999e-01  -8.4128557256020176e-01  -5.0135577866967362e-01  -2.6537338871696372e-02  4.6095840817337885e-01  8.1131341195507545e-01  9.4558109989892869e-01  8.3537620739015950e-01  5.0174258730512822e-01  2.1811150981610541e-02  -2.5339858010754212e-03  -8.1282417336370316e-01  -1.3948812890343081e+00  -1.6083355516642832e+00  -1.3994206768270707e+00  -8.1070580285698257e-01  1.7722815104930837e-03  8.1003304050268932e-01  1.3948197919426495e+00  1.6073809743972785e+00  1.3998030841619902e+00  8.1517470365044231e-01  -2.5339858010754212e-03  -2.4231161908792282e-02  -9.4743531152424798e-01  -1.6067077798158593e+00  -1.8359372198084620e+00  -1.5856891537164961e+00  -9.0620668561628104e-01  2.4118526692133702e-02  9.4783997022344402e-01  1.6086524306219436e+00  1.8371599846825455e+00  1.5809114958858443e+00  9.0442799099805160e-01  -2.4231161908792282e-02  -4.2868091300248115e-02  -8.3809667026285095e-01  -1.3997085812123595e+00  -1.5812106196743094e+00  -1.3562985186562946e+00  -7.6783131542915817e-01  4.1727792527208131e-02  8.3990770730565378e-01  1.3966552249443600e+00  1.5801922206087016e+00  1.3532652430506447e+00  7.6507561903508825e-01  -4.2868091300248115e-02  -4.9576918684581549e-02  -5.0247837291041542e-01  -8.1248795758145453e-01  -9.0663194582667050e-01  -7.6411011618708158e-01  -4.1696181346126326e-01  5.0817275809734608e-02  5.0218074935938206e-01  8.1142791718500817e-01  9.0904066334028422e-01  7.6893259986190543e-01  4.1614611271129592e-01  -4.9576918684581549e-02  -4.5628032363419946e-02  -2.2394105538027627e-02  1.6574099770192675e-03  2.5789291708331295e-02  4.2206434528860179e-02  5.0787186165627947e-02  4.4669524008205647e-02  2.4381358607607574e-02  2.5631908426916095e-04  -2.4127088655209936e-02  -4.1829112667572825e-02  -4.9562915202274273e-02  -4.5628032363419946e-02  -2.6039175255666114e-02  4.5810932999396659e-01  8.1328383349235311e-01  9.4533240321974887e-01  8.3859819676908043e-01  5.0151176759062710e-01  2.3501846300545144e-02  -4.6093338824643837e-01  -8.1082299400566471e-01  -9.4726621700981062e-01  -8.4053675493117719e-01  -5.0329124587409402e-01  -2.6039175255666114e-02  3.8471462145659957e-03  8.1188264483127537e-01  1.3929029995928255e+00  1.6092652846866269e+00  1.4000950849167273e+00  8.1487975862793249e-01  -5.6980763816036218e-03  -8.1066429251609085e-01  -1.3933035005342596e+00  -1.6088230568436750e+00  -1.3946887316785976e+00  -8.0981379766273720e-01  3.8471462145659957e-03  2.1847995807755514e-02  9.4958404522084683e-01  1.6078981443681419e+00  1.8384742778438929e+00  1.5779588427571896e+00  9.0621526045163969e-01  -2.5596002880957421e-02  -9.4831871156543124e-01  -1.6065643406628902e+00  -1.8364146195814468e+00  -1.5846284103970882e+00  -9.0671816392475746e-01  2.1847995807755514e-02  4.2976684373858570e-02  8.4046490500802062e-01  1.3983763280948991e+00  1.5819609629255209e+00  1.3551946312153513e+00  7.6747452432834951e-01  -4.5414983288583656e-02  -8.3680291578904187e-01  -1.3976105735501092e+00  -1.5837392291682251e+00  -1.3546346350229594e+00  -7.7114260233762510e-01  4.2976684373858570e-02  5.2543444469916260e-02  5.0563390718277501e-01  8.0743242376398139e-01  9.0794298119228178e-01  7.6917656634914311e-01  4.1502414687911221e-01  -4.6295534808768871e-02  -5.0310022261828791e-01  -8.0959999816854689e-01  -9.0486048029585497e-01  -7.6594431326652379e-01  -4.1766826992015316e-01  5.2543444469916260e-02  4.6216532878247202e-02  2.2839523178209000e-02  -2.7179686239099297e-04  -2.2938422944284099e-02  -3.9169814181337297e-02  -5.0287714856924029e-02  -4.2295697166120534e-02  -2.5858400894181548e-02  3.4799610262183167e-03  2.4669524258261202e-02  4.2713635807503321e-02  5.1690476562676148e-02  4.6216532878247202e-02  2.3129873599144968e-02  1.3262025337536700e-03  -2.3111965057085723e-02  -4.3192114270427441e-02  -4.8649013697741474e-02  -4.4068301234964351e-02  -2.4870767026178926e-02  1.2250651524947581e-03  2.5437502025778918e-02  3.9699810529269609e-02  4.8000235444746846e-02  3.9225608075035459e-02  2.3129873599144968e-02  3.0029633066973160e-03  -2.8957447673007636e-01  -4.9642666788485090e-01  -5.7574779644573015e-01  -4.9615179037372359e-01  -2.9192153121386055e-01  1.4515303105436461e-03  2.8647351599841714e-01  4.9666337461207033e-01  5.7515480347367642e-01  4.9930210155317162e-01  2.8780979562461600e-01  3.0029633066973160e-03  -2.3835012035359742e-02  -4.9754166149788676e-01  -8.3609035311038127e-01  -9.4817941944624129e-01  -8.1066274845652020e-01  -4.5381302265358031e-01  2.1434485160329034e-02  4.9961900075867710e-01  8.3453941244975183e-01  9.4766875113045146e-01  8.0964978467837923e-01  4.5185775049650267e-01  -2.3835012035359742e-02  -4.1432521762377925e-02  -5.7375726194720111e-01  -9.4798832872031158e-01  -1.0675752423315914e+00  -9.0398307768859365e-01  -5.0122396570010608e-01  4.2974848833099218e-02  5.7485845439810868e-01  9.4945452537802788e-01  1.0655443448250659e+00  9.0437083336210455e-01  5.0050275116119991e-01  -4.1432521762377925e-02  -4.9512033987615660e-02  -4.9903317082343646e-01  -8.0961820763796633e-01  -9.0429373246840417e-01  -7.6091829844844361e-01  -4.1094551180596861e-01  5.0665052828195827e-02  4.9833602059928289e-01  8.1124651359923328e-01  9.0345296572751288e-01  7.5906672553058752e-01  4.1340532994001883e-01  -4.9512033987615660e-02  -4.2128439881456786e-02  -2.8826662197264713e-01  -4.5449954991297442e-01  -4.9825215369983927e-01  -4.1157781604553473e-01  -2.1117141615988919e-01  4.3612193610828409e-02  2.9064895558596315e-01  4.5339931083113749e-01  5.0054443782768598e-01  4.1123794231673227e-01  2.1311078425840171e-01  -4.2128439881456786e-02  -2.6309422003608429e-02  6.4041086877754134e-04  2.3790583613022703e-02  4.1984511696266227e-02  4.9291764973201792e-02  4.2829363431374799e-02  2.5301359988738389e-02  -1.0755879777897700e-03  -2.4314965505644388e-02  -4.3324019907502773e-02  -4.9509605057281900e-02  -4.3198900616743127e-02  -2.6309422003608429e-02  6.3655181641188369e-04  2.8633989505850449e-01  4.9572743875598380e-01  5.7564737890658935e-01  5.0036688024416165e-01  2.8902913480411097e-01  9.2817694566958253e-04  -2.8706529630773148e-01  -4.9857132090401574e-01  -5.7248767991868943e-01  -4.9729069378612983e-01  -2.9031534385597763e-01  6.3655181641188369e-04  2.3985142552154705e-02  4.9430060909480122e-01  8.3574605705601179e-01  9.4670591427161599e-01  8.0845321341720400e-01  4.5131031117357301e-01  -2.4380347184473655e-02  -4.9842880161344338e-01  -8.3475754098458044e-01  -9.4756549346835817e-01  -8.0859084800431702e-01  -4.5340607271257571e-01  2.3985142552154705e-02  4.3506729142475588e-02  5.7364393344172537e-01  9.4818052450476642e-01  1.0684478061968323e+00  9.0338758411049880e-01  4.9965605722101841e-01  -4.4188348336405038e-02  -5.7545559274960412e-01  -9.4711340423854540e-01  -1.0671391982743126e+00  -9.0313619239491727e-01  -5.0158462359143818e-01  4.3506729142475588e-02  4.9218451450659367e-02  4.9871692400056444e-01  8.1001644357243618e-01  9.0360101158786199e-01  7.6399622565811287e-01  4.1120208716185624e-01  -5.0255630662248078e-02  -4.9669734473146787e-01  -8.0887641285475642e-01  -9.0391718203808691e-01  -7.6088073727539585e-01  -4.1214564593980019e-01  4.9218451450659367e-02  4.5531721165952652e-02  2.8741953369905432e-01  4.5506195432060059e-01  5.0148862423615037e-01  4.0985529476479460e-01  2.1375728018210219e-01  -3.9898092829091798e-02  -2.8766859950739182e-01  -4.5435470535982175e-01  -4.9865235828870663e-01  -4.1142218231361039e-01  -2.1481634607966310e-01  4.5531721165952652e-02  2.3129873599144968e-02  1.3262025337536700e-03  -2.3111965057085723e-02  -4.3192114270427441e-02  -4.8649013697741474e-02  -4.4068301234964351e-02  -2.4870767026178926e-02  1.2250651524947581e-03  2.5437502025778918e-02  3.9699810529269609e-02  4.8000235444746846e-02  3.9225608075035459e-02  2.3129873599144968e-02  1.7749273035781662e-03  -2.3217254238512300e-02  -4.1541471845654369e-02  -5.0909101582324444e-02  -4.2450496173430684e-02  -2.4055882389382024e-02  -1.8572744959074647e-04  2.2186618490006811e-02  4.1168840844653387e-02  5.1070487284869605e-02  4.0403229963395237e-02  2.5727150220942050e-02  1.7749273035781662e-03  -2.4058072051374741e-02  -4.3337885393075842e-02  -5.2050740514234681e-02  -4.4344554150139333e-02  -2.5277580996919291e-02  -6.7306310680520086e-04  2.4340187411746123e-02  4.4255731279522176e-02  5.0706265862873585e-02  4.0743763392663251e-02  2.4188377816744076e-02  2.1660123771025169e-03  -2.4058072051374741e-02  -4.2979432413765457e-02  -4.9651358572569713e-02  -4.3127501129061982e-02  -2.6107891463361711e-02  -4.6699564738087080e-04  2.2494657779392083e-02  4.3551966063515753e-02  4.6838402163914473e-02  4.4431010430596440e-02  2.6928575518862338e-02  -5.9268364454568363e-04  -2.2439166103416223e-02  -4.2979432413765457e-02  -4.9886890546694103e-02  -4.2506808635419453e-02  -2.6097560135559975e-02  -1.3455474488529167e-03  2.5778453786524689e-02  4.4306760973071693e-02  4.8343704285890784e-02  4.2172616002610207e-02  2.6276545214644492e-02  3.7763856151052733e-04  -2.4882427791429816e-02  -4.0848254140873452e-02  -4.9886890546694103e-02  -4.1426448586057353e-02  -2.2524359856892585e-02  -1.1177868296793543e-03  2.5435118280402062e-02  4.6958474397062466e-02  4.9954833986599737e-02  4.3717398204922917e-02  2.4390623286215603e-02  -2.8636258208801957e-04  -2.3932416044472042e-02  -4.3985059246649097e-02  -5.0101054250444095e-02  -4.1426448586057353e-02  -2.6708044708179807e-02  -7.0660808208792289e-04  2.3989344444168035e-02  4.2390389942489545e-02  5.0627452752789071e-02  4.2980491044031732e-02  2.4738292984214566e-02  1.9951876301608517e-03  -2.4514949749959849e-02  -4.2998033508443223e-02  -5.1907467071167633e-02  -4.3007437297528282e-02  -2.6708044708179807e-02  4.8655644076315392e-04  2.6352746453176677e-02  4.1860889243058953e-02  4.9298755166272815e-02  4.2825098845376393e-02  2.4018424830938738e-02  1.5044070026172180e-03  -2.3016854545407247e-02  -4.2074941841977298e-02  -4.9645187800605339e-02  -4.0993295591793565e-02  -2.7324006831924846e-02  4.8655644076315392e-04  2.3238155939172937e-02  4.2361331412486811e-02  4.8523251186329691e-02  4.4056426623816161e-02  2.4201110083572418e-02  7.5891015901206622e-04  -2.2770692495295432e-02  -4.2533605964295042e-02  -5.0356898726982943e-02  -4.0381788075206239e-02  -2.5121450681565068e-02  1.1019450741207184e-04  2.3238155939172937e-02  4.0899586704634540e-02  4.9405717962585249e-02  4.4465056033674920e-02  2.4288396841471407e-02  -2.4640979807211034e-03  -2.4241371904905298e-02  -4.3714868395508741e-02  -5.1220498945447480e-02  -4.2917244416320735e-02  -2.5826768844314202e-02  1.0114123633807310e-03  2.4337868927154477e-02  4.0899586704634540e-02  4.7337069162048578e-02  4.2907971195673786e-02  2.5607450826395897e-02  -5.1694057931239604e-04  -2.5606322038993285e-02  -4.4770912354226471e-02  -4.8907507179254212e-02  -4.2572890451427522e-02  -2.4544880103428143e-02  2.2139541243145947e-04  2.7622646685174185e-02  4.2972571851685244e-02  4.7337069162048578e-02  4.3466688639945406e-02  2.6271175690339144e-02  9.1464608122694983e-04  -2.4656382473574170e-02  -4.4166172655331959e-02  -5.0330129696273769e-02  -4.5175081327259572e-02  -2.2479605110617206e-02  -3.5717347050526194e-04  2.5421321998015157e-02  4.2935595684083901e-02  4.9238541178665822e-02  4.3466688639945406e-02  2.4649176528219668e-02  -8.4693267580550357e-04  -2.3671011293056293e-02  -4.1805688391059387e-02  -4.9718046595432802e-02  -4.3096705802938957e-02  -2.4258902999713693e-02  3.1255328009743486e-04  2.5393421189091658e-02  3.9592311904041763e-02  5.0114005856782287e-02  4.1947245345761962e-02  2.4649176528219668e-02  1.7749273035781662e-03  -2.3217254238512300e-02  -4.1541471845654369e-02  -5.0909101582324444e-02  -4.2450496173430684e-02  -2.4055882389382024e-02  -1.8572744959074647e-04  2.2186618490006811e-02  4.1168840844653387e-02  5.1070487284869605e-02  4.0403229963395237e-02  2.5727150220942050e-02  1.7749273035781662e-03  -2.5149239263016404e-02  -4.2221745490278392e-02  -5.1110721449060620e-02  -4.3438499656281979e-02  -2.5784900563950806e-02  -2.9510621444842929e-04  2.2627823492532666e-02  4.4020906035801610e-02  4.9667466365894211e-02  4.4466528457357518e-02  2.3431648993441571e-02  2.3772687733749033e-03  -2.5149239263016404e-02  -4.1904515766017988e-02  2.1292663547727184e-01  4.1237136897884302e-01  5.0016563517847079e-01  4.5466914490613031e-01  2.8840579891085605e-01  4.5353295383377207e-02  -2.1452824456155362e-01  -4.1375527870446321e-01  -5.0215531072083508e-01  -4.5375335695518609e-01  -2.8797004644866792e-01  -4.1904515766017988e-02  -4.8175642639167703e-02  4.1159740930048239e-01  7.6194288151951750e-01  9.0435159922303288e-01  8.1041083394248570e-01  4.9895601485410224e-01  4.8032177917452824e-02  -4.1325098055232623e-01  -7.6078611179345967e-01  -9.0382077376310588e-01  -8.0834358398155748e-01  -4.9807343028503864e-01  -4.8175642639167703e-02  -4.2036875790070455e-02  4.9856143191185998e-01  9.0298723552017901e-01  1.0694532308327627e+00  9.4851358268778774e-01  5.7268059987637199e-01  4.0186049550753264e-02  -5.0184483709727756e-01  -9.0204620537016822e-01  -1.0668598780097038e+00  -9.4666680018528271e-01  -5.7307185152479656e-01  -4.2036875790070455e-02  -2.1617411657716194e-02  4.5242121610893943e-01  8.1069602065217239e-01  9.4956218938133186e-01  8.3308781483609939e-01  4.9464092603731513e-01  2.4145709059685015e-02  -4.5483690112525238e-01  -8.1098774212680702e-01  -9.4912802183448786e-01  -8.3421256500581875e-01  -4.9706662790391803e-01  -2.1617411657716194e-02  8.1181961890580161e-05  2.8835983456100117e-01  4.9758233004260327e-01  5.7283719972999347e-01  4.9611221779178949e-01  2.8669965236426004e-01  2.6000878523158365e-03  -2.9033765528088062e-01  -5.0009585809093138e-01  -5.7474580268833908e-01  -4.9682268385140643e-01  -2.8874023737000676e-01  8.1181961890580161e-05  2.5051541199797453e-02  4.3850859254760954e-02  4.8130052610926982e-02  4.1931953490650535e-02  2.5093365534685042e-02  1.1378068443346368e-03  -2.3496775404917448e-02  -4.0917338723943895e-02  -4.7615697020251806e-02  -3.7783377396784779e-02  -2.2383210662379759e-02  -2.2375274008869799e-03  2.5051541199797453e-02  4.4673746753766772e-02  -2.1366516572608948e-01  -4.1429662228307568e-01  -4.9819165243211250e-01  -4.5515300936048964e-01  -2.8901488376906659e-01  -4.1952986027202530e-02  2.1339904253189579e-01  4.1508856527051230e-01  5.0024792782831462e-01  4.5419166047165277e-01  2.8658150847126346e-01  4.4673746753766772e-02  4.7986542492804027e-02  -4.1190343043453287e-01  -7.6045891299323876e-01  -9.0332665804316947e-01  -8.0999978598533484e-01  -4.9775632800211511e-01  -5.1151506345128030e-02  4.1669317168526704e-01  7.6094989440769645e-01  9.0679646208845699e-01  8.0956142020082500e-01  4.9940079847162888e-01  4.7986542492804027e-02  3.9752727572442428e-02  -4.9938860236355981e-01  -9.0609609058167695e-01  -1.0672562604384794e+00  -9.4830953230151427e-01  -5.7522631729147167e-01  -4.2215649240461513e-02  5.0059383020780979e-01  9.0432379942290475e-01  1.0693787975746218e+00  9.5223447631388702e-01  5.7455442524492817e-01  3.9752727572442428e-02  2.1454349851296965e-02  -4.5546902262156502e-01  -8.0876458038244636e-01  -9.4750337549321673e-01  -8.3595126130863573e-01  -4.9847608415722927e-01  -2.4797123198901566e-0