<?xml version="1.0"?>
<VTKFile type="UnstructuredGrid"  version="0.1"  >
<UnstructuredGrid>
<Piece  NumberOfPoints="2197" NumberOfCells="10368">
<Points>
<DataArray  type="Float64"  NumberOfComponents="3"  format="ascii">-3.141592653589793 -3.141592653589793 -3.141592653589793  -2.617993877991494 -3.141592653589793 -3.141592653589793  -2.094395102393196 -3.141592653589793 -3.141592653589793  -1.570796326794897 -3.141592653589793 -3.141592653589793  -1.047197551196598 -3.141592653589793 -3.141592653589793  -0.5235987755982987 -3.141592653589793 -3.141592653589793  0 -3.141592653589793 -3.141592653589793  0.5235987755982987 -3.141592653589793 -3.141592653589793  1.047197551196597 -3.141592653589793 -3.141592653589793  1.570796326794897 -3.141592653589793 -3.141592653589793  2.094395102393196 -3.141592653589793 -3.141592653589793  2.617993877991494 -3.141592653589793 -3.141592653589793  3.141592653589793 -3.141592653589793 -3.141592653589793  -3.141592653589793 -2.617993877991494 -3.141592653589793  -2.617993877991494 -2.617993877991494 -3.141592653589793  -2.094395102393196 -2.617993877991494 -3.141592653589793  -1.570796326794897 -2.617993877991494 -3.141592653589793  -1.047197551196598 -2.617993877991494 -3.141592653589793  -0.5235987755982987 -2.617993877991494 -3.141592653589793  0 -2.617993877991494 -3.141592653589793  0.5235987755982987 -2.617993877991494 -3.141592653589793  1.047197551196597 -2.617993877991494 -3.141592653589793  1.570796326794897 -2.617993877991494 -3.141592653589793  2.094395102393196 -2.617993877991494 -3.141592653589793  2.617993877991494 -2.617993877991494 -3.141592653589793  3.141592653589793 -2.617993877991494 -3.141592653589793  -3.141592653589793 -2.094395102393196 -3.141592653589793  -2.617993877991494 -2.094395102393196 -3.141592653589793  -2.094395102393196 -2.094395102393196 -3.141592653589793  -1.570796326794897 -2.094395102393196 -3.141592653589793  -1.047197551196598 -2.094395102393196 -3.141592653589793  -0.5235987755982987 -2.094395102393196 -3.141592653589793  0 -2.094395102393196 -3.141592653589793  0.5235987755982987 -2.094395102393196 -3.141592653589793  1.047197551196597 -2.094395102393196 -3.141592653589793  1.570796326794897 -2.094395102393196 -3.141592653589793  2.094395102393196 -2.094395102393196 -3.141592653589793  2.617993877991494 -2.094395102393196 -3.141592653589793  3.141592653589793 -2.094395102393196 -3.141592653589793  -3.141592653589793 -1.570796326794897 -3.141592653589793  -2.617993877991494 -1.570796326794897 -3.141592653589793  -2.094395102393196 -1.570796326794897 -3.141592653589793  -1.570796326794897 -1.570796326794897 -3.141592653589793  -1.047197551196598 -1.570796326794897 -3.141592653589793  -0.5235987755982987 -1.570796326794897 -3.141592653589793  0 -1.570796326794897 -3.141592653589793  0.5235987755982987 -1.570796326794897 -3.141592653589793  1.047197551196597 -1.570796326794897 -3.141592653589793  1.570796326794897 -1.570796326794897 -3.141592653589793  2.094395102393196 -1.570796326794897 -3.141592653589793  2.617993877991494 -1.570796326794897 -3.141592653589793  3.141592653589793 -1.570796326794897 -3.141592653589793  -3.141592653589793 -1.047197551196598 -3.141592653589793  -2.617993877991494 -1.047197551196598 -3.141592653589793  -2.094395102393196 -1.047197551196598 -3.141592653589793  -1.570796326794897 -1.047197551196598 -3.141592653589793  -1.047197551196598 -1.047197551196598 -3.141592653589793  -0.5235987755982987 -1.047197551196598 -3.141592653589793  0 -1.047197551196598 -3.141592653589793  0.5235987755982987 -1.047197551196598 -3.141592653589793  1.047197551196597 -1.047197551196598 -3.141592653589793  1.570796326794897 -1.047197551196598 -3.141592653589793  2.094395102393196 -1.047197551196598 -3.141592653589793  2.617993877991494 -1.047197551196598 -3.141592653589793  3.141592653589793 -1.047197551196598 -3.141592653589793  -3.141592653589793 -0.5235987755982987 -3.141592653589793  -2.617993877991494 -0.5235987755982987 -3.141592653589793  -2.094395102393196 -0.5235987755982987 -3.141592653589793  -1.570796326794897 -0.5235987755982987 -3.141592653589793  -1.047197551196598 -0.5235987755982987 -3.141592653589793  -0.5235987755982987 -0.5235987755982987 -3.141592653589793  0 -0.5235987755982987 -3.141592653589793  0.5235987755982987 -0.5235987755982987 -3.141592653589793  1.047197551196597 -0.5235987755982987 -3.141592653589793  1.570796326794897 -0.5235987755982987 -3.141592653589793  2.094395102393196 -0.5235987755982987 -3.141592653589793  2.617993877991494 -0.5235987755982987 -3.141592653589793  3.141592653589793 -0.5235987755982987 -3.141592653589793  -3.141592653589793 0 -3.141592653589793  -2.617993877991494 0 -3.141592653589793  -2.094395102393196 0 -3.141592653589793  -1.570796326794897 0 -3.141592653589793  -1.047197551196598 0 -3.141592653589793  -0.5235987755982987 0 -3.141592653589793  0 0 -3.141592653589793  0.5235987755982987 0 -3.141592653589793  1.047197551196597 0 -3.141592653589793  1.570796326794897 0 -3.141592653589793  2.094395102393196 0 -3.141592653589793  2.617993877991494 0 -3.141592653589793  3.141592653589793 0 -3.141592653589793  -3.141592653589793 0.5235987755982987 -3.141592653589793  -2.617993877991494 0.5235987755982987 -3.141592653589793  -2.094395102393196 0.5235987755982987 -3.141592653589793  -1.570796326794897 0.5235987755982987 -3.141592653589793  -1.047197551196598 0.5235987755982987 -3.141592653589793  -0.5235987755982987 0.5235987755982987 -3.141592653589793  0 0.5235987755982987 -3.141592653589793  0.5235987755982987 0.5235987755982987 -3.141592653589793  1.047197551196597 0.5235987755982987 -3.141592653589793  1.570796326794897 0.5235987755982987 -3.141592653589793  2.094395102393196 0.5235987755982987 -3.141592653589793  2.617993877991494 0.5235987755982987 -3.141592653589793  3.141592653589793 0.5235987755982987 -3.141592653589793  -3.141592653589793 1.047197551196597 -3.141592653589793  -2.617993877991494 1.047197551196597 -3.141592653589793  -2.094395102393196 1.047197551196597 -3.141592653589793  -1.570796326794897 1.047197551196597 -3.141592653589793  -1.047197551196598 1.047197551196597 -3.141592653589793  -0.5235987755982987 1.047197551196597 -3.141592653589793  0 1.047197551196597 -3.141592653589793  0.5235987755982987 1.047197551196597 -3.141592653589793  1.047197551196597 1.047197551196597 -3.141592653589793  1.570796326794897 1.047197551196597 -3.141592653589793  2.094395102393196 1.047197551196597 -3.141592653589793  2.617993877991494 1.047197551196597 -3.141592653589793  3.141592653589793 1.047197551196597 -3.141592653589793  -3.141592653589793 1.570796326794897 -3.141592653589793  -2.617993877991494 1.570796326794897 -3.141592653589793  -2.094395102393196 1.570796326794897 -3.141592653589793  -1.570796326794897 1.570796326794897 -3.141592653589793  -1.047197551196598 1.570796326794897 -3.141592653589793  -0.5235987755982987 1.570796326794897 -3.141592653589793  0 1.570796326794897 -3.141592653589793  0.5235987755982987 1.570796326794897 -3.141592653589793  1.047197551196597 1.570796326794897 -3.141592653589793  1.570796326794897 1.570796326794897 -3.141592653589793  2.094395102393196 1.570796326794897 -3.141592653589793  2.617993877991494 1.570796326794897 -3.141592653589793  3.141592653589793 1.570796326794897 -3.141592653589793  -3.141592653589793 2.094395102393196 -3.141592653589793  -2.617993877991494 2.094395102393196 -3.141592653589793  -2.094395102393196 2.094395102393196 -3.141592653589793  -1.570796326794897 2.094395102393196 -3.141592653589793  -1.047197551196598 2.094395102393196 -3.141592653589793  -0.5235987755982987 2.094395102393196 -3.141592653589793  0 2.094395102393196 -3.141592653589793  0.5235987755982987 2.094395102393196 -3.141592653589793  1.047197551196597 2.094395102393196 -3.141592653589793  1.570796326794897 2.094395102393196 -3.141592653589793  2.094395102393196 2.094395102393196 -3.141592653589793  2.617993877991494 2.094395102393196 -3.141592653589793  3.141592653589793 2.094395102393196 -3.141592653589793  -3.141592653589793 2.617993877991494 -3.141592653589793  -2.617993877991494 2.617993877991494 -3.141592653589793  -2.094395102393196 2.617993877991494 -3.141592653589793  -1.570796326794897 2.617993877991494 -3.141592653589793  -1.047197551196598 2.617993877991494 -3.141592653589793  -0.5235987755982987 2.617993877991494 -3.141592653589793  0 2.617993877991494 -3.141592653589793  0.5235987755982987 2.617993877991494 -3.141592653589793  1.047197551196597 2.617993877991494 -3.141592653589793  1.570796326794897 2.617993877991494 -3.141592653589793  2.094395102393196 2.617993877991494 -3.141592653589793  2.617993877991494 2.617993877991494 -3.141592653589793  3.141592653589793 2.617993877991494 -3.141592653589793  -3.141592653589793 3.141592653589793 -3.141592653589793  -2.617993877991494 3.141592653589793 -3.141592653589793  -2.094395102393196 3.141592653589793 -3.141592653589793  -1.570796326794897 3.141592653589793 -3.141592653589793  -1.047197551196598 3.141592653589793 -3.141592653589793  -0.5235987755982987 3.141592653589793 -3.141592653589793  0 3.141592653589793 -3.141592653589793  0.5235987755982987 3.141592653589793 -3.141592653589793  1.047197551196597 3.141592653589793 -3.141592653589793  1.570796326794897 3.141592653589793 -3.141592653589793  2.094395102393196 3.141592653589793 -3.141592653589793  2.617993877991494 3.141592653589793 -3.141592653589793  3.141592653589793 3.141592653589793 -3.141592653589793  -3.141592653589793 -3.141592653589793 -2.617993877991494  -2.617993877991494 -3.141592653589793 -2.617993877991494  -2.094395102393196 -3.141592653589793 -2.617993877991494  -1.570796326794897 -3.141592653589793 -2.617993877991494  -1.047197551196598 -3.141592653589793 -2.617993877991494  -0.5235987755982987 -3.141592653589793 -2.617993877991494  0 -3.141592653589793 -2.617993877991494  0.5235987755982987 -3.141592653589793 -2.617993877991494  1.047197551196597 -3.141592653589793 -2.617993877991494  1.570796326794897 
[...]
<PointData  Scalars="f_70176"> 
<DataArray  type="Float64"  Name="f_70176"  format="ascii">5.5675626934959137e-02  4.5060305454922532e-02  2.1676337993874750e-02  -2.3318247812635635e-03  -1.5473295565022128e-02  -4.3067840618617126e-02  -5.4894803763286260e-02  -4.1347443616644317e-02  -2.3149768606824543e-02  -2.6812069008514158e-03  1.7158799904423327e-02  4.1387313522971370e-02  5.5675626934959137e-02  4.6767397563232282e-02  -5.2017559545711034e-01  -9.1689075295409173e-01  -1.0641970300445462e+00  -9.6350583932610878e-01  -5.9348764483524918e-01  -4.4595512057655787e-02  5.2128540135630863e-01  9.2341471419123555e-01  1.0674978269812583e+00  9.5294418677148551e-01  5.8758136502084690e-01  4.6767397563232282e-02  1.7959940300640159e-02  -9.2560140176728667e-01  -1.5746382906702436e+00  -1.8207266901035324e+00  -1.6089384240065936e+00  -9.5165045143601978e-01  -1.7691068441692021e-02  9.1245571415347337e-01  1.5750607222063802e+00  1.8199208687394026e+00  1.6131578104956170e+00  9.6430009240499626e-01  1.7959940300640159e-02  -4.9939101194107515e-04  -1.0628547277233924e+00  -1.8241232249874717e+00  -2.0935320607156158e+00  -1.8194643303952704e+00  -1.0660903776630657e+00  7.4254740246095679e-04  1.0647252187406500e+00  1.8193690077493307e+00  2.0875362376498625e+00  1.8168244322939937e+00  1.0637252701039721e+00  -4.9939101194107515e-04  -1.7321128192349249e-02  -9.5246663685045441e-01  -1.6129081505355336e+00  -1.8184051315330894e+00  -1.5761456815693045e+00  -9.2508618049930003e-01  1.8624514753756403e-02  9.6499642497319216e-01  1.6159825690210694e+00  1.8149351588292617e+00  1.5744065845729085e+00  9.1173227835773152e-01  -1.7321128192349249e-02  -4.2404631542163743e-02  -5.9464767888417669e-01  -9.6195384257029837e-01  -1.0655702845731485e+00  -9.1089570530558284e-01  -5.1915814580811626e-01  4.4722063581165754e-02  5.9268009161750135e-01  9.4994670983516960e-01  1.0675263110462105e+00  9.2299570550444476e-01  5.1963475343971066e-01  -4.2404631542163743e-02  -5.0675792591757467e-02  -4.2766401046355894e-02  -1.9267076931267679e-02  3.7405580816716636e-04  2.1562393044274372e-02  4.0389734122352541e-02  5.3335009841508858e-02  4.0492511438516079e-02  2.1928542796524425e-02  -2.1332942544581364e-03  -1.8681051163515046e-02  -4.3798998746829437e-02  -5.0675792591757467e-02  -4.3981737395858006e-02  5.1898200391771587e-01  9.2331318992703115e-01  1.0700770192655520e+00  9.5204594435240864e-01  5.9242672991589929e-01  4.1575059575523737e-02  -5.1987626982416124e-01  -9.1327102727411258e-01  -1.0660752396001762e+00  -9.5980122458809913e-01  -5.9252580851078529e-01  -4.3981737395858006e-02  -2.0622424653066372e-02  9.1474339214865785e-01  1.5764328889350205e+00  1.8172297030613944e+00  1.6151290184602536e+00  9.6075329223458983e-01  1.9686132367375053e-02  -9.2571347843241203e-01  -1.5736909049954502e+00  -1.8219244042620590e+00  -1.6086126796062445e+00  -9.5111559877527252e-01  -2.0622424653066372e-02  8.3698298655929607e-04  1.0677563222175037e+00  1.8201163563943410e+00  2.0926784178191191e+00  1.8224509858913438e+00  1.0595874100618834e+00  1.0283790624914149e-03  -1.0672500946210646e+00  -1.8199755772462998e+00  -2.0905849199463260e+00  -1.8202748958996366e+00  -1.0668298291845724e+00  8.3698298655929607e-04  1.6799328947181308e-02  9.6160902982125829e-01  1.6156199443472288e+00  1.8158109864584961e+00  1.5726864339788431e+00  9.1537381619208491e-01  -2.2109112179116607e-02  -9.5321271745514624e-01  -1.6044071224756433e+00  -1.8200999892082008e+00  -1.5726619813957172e+00  -9.2162370955195638e-01  1.6799328947181308e-02  4.0575304518838888e-02  5.9418076487756633e-01  9.5295112124346126e-01  1.0648105532904288e+00  9.2638342993167211e-01  5.2271106624685448e-01  -4.5552247845341010e-02  -5.9061825123675293e-01  -9.6199317234035975e-01  -1.0661428833308908e+00  -9.1301568681303513e-01  -5.1939409874858555e-01  4.0575304518838888e-02  5.5675626934959137e-02  4.5060305454922532e-02  2.1676337993874750e-02  -2.3318247812635635e-03  -1.5473295565022128e-02  -4.3067840618617126e-02  -5.4894803763286260e-02  -4.1347443616644317e-02  -2.3149768606824543e-02  -2.6812069008514158e-03  1.7158799904423327e-02  4.1387313522971370e-02  5.5675626934959137e-02  4.8323111402068325e-02  2.2370275873799687e-02  -1.9312649824223967e-03  -2.1688789558684307e-02  -3.7166680122820046e-02  -5.1913999713526539e-02  -4.2792558955914377e-02  -2.5766145579749412e-02  5.7624077248267149e-03  2.3901110847981917e-02  4.2339772586634461e-02  5.3363474336297567e-02  4.8323111402068325e-02  2.0277895177704869e-02  -4.6813166160968911e-01  -8.1480847967463577e-01  -9.4889702340844229e-01  -8.4835253737150895e-01  -5.0690375634700757e-01  -2.7264271344044022e-02  4.6843557061824653e-01  8.1438538133849325e-01  9.4460839689424125e-01  8.3909822751349039e-01  5.0832544598964735e-01  2.0277895177704869e-02  -4.2566758632757145e-03  -8.1660293394950623e-01  -1.3890332923059272e+00  -1.6006801435827147e+00  -1.3980983913573144e+00  -8.1092095242692164e-01  3.8071947037314380e-03  8.1152371200089635e-01  1.3887049690514388e+00  1.5980599078296196e+00  1.3994882340452366e+00  8.2031791143190635e-01  -4.2566758632757145e-03  -2.3753107250301206e-02  -9.4670589940532901e-01  -1.5971888681257869e+00  -1.8211211235241058e+00  -1.5772979031120704e+00  -9.0706710119927214e-01  2.3585034878700534e-02  9.4796361868920920e-01  1.6012156367791679e+00  1.8225449283345185e+00  1.5699289537650980e+00  9.0458917215775225e-01  -2.3753107250301206e-02  -4.2437934252968740e-02  -8.4277459263808940e-01  -1.3995167245279483e+00  -1.5700816179737076e+00  -1.3541029630285699e+00  -7.7704833653170946e-01  4.0403883756369351e-02  8.4653941243817055e-01  1.3943116540050926e+00  1.5699292192362548e+00  1.3498912238644385e+00  7.7044312367802958e-01  -4.2437934252968740e-02  -5.0799952435928837e-02  -5.0940942591105420e-01  -8.1697138204240960e-01  -9.0705449270247218e-01  -7.6889638611647726e-01  -4.2307482854064404e-01  5.2411705496751573e-02  5.0815456789289570e-01  8.1193901358324427e-01  9.1077918015113457e-01  7.7867753024747743e-01  4.2200801953839684e-01  -5.0799952435928837e-02  -4.7412911385586315e-02  -2.0990933270137326e-02  3.0534054411729900e-03  2.5648470296241729e-02  4.1581878538706228e-02  5.2030764438620300e-02  4.5995445483685948e-02  2.4304032792766116e-02  -1.2092755498615605e-03  -2.3176026100349658e-02  -4.0649448335686490e-02  -5.0922508226360255e-02  -4.7412911385586315e-02  -2.6193102147484756e-02  4.6452930183750324e-01  8.1684622361421066e-01  9.4419258425679531e-01  8.4353626577464547e-01  5.0833055423642870e-01  2.2617180068638654e-02  -4.6849164665740461e-01  -8.1224395379238057e-01  -9.4735791230093969e-01  -8.4742794648212427e-01  -5.0964571422817884e-01  -2.6193102147484756e-02  6.3047427890056511e-03  8.1407445464701811e-01  1.3862120233481836e+00  1.6005816412995992e+00  1.3998401072166600e+00  8.2011969081328373e-01  -8.4034491260294737e-03  -8.1367428266885211e-01  -1.3869747093057299e+00  -1.6014477404578900e+00  -1.3913499017818285e+00  -8.0997313057979425e-01  6.3047427890056511e-03  2.0240586732478864e-02  9.5071763042469082e-01  1.6001103095957221e+00  1.8244989145036343e+00  1.5657740398507300e+00  9.0693053291717296e-01  -2.5781574349721850e-02  -9.4783101498863576e-01  -1.5969163752591991e+00  -1.8217684979299342e+00  -1.5760559818499655e+00  -9.0747122345311526e-01  2.0240586732478864e-02  4.2511537652211530e-02  8.4688353372289304e-01  1.3967951301053469e+00  1.5720151747525095e+00  1.3529524805546287e+00  7.7312609250354491e-01  -4.5728272481129539e-02  -8.4086412747513350e-01  -1.3967373886747037e+00  -1.5735908186401268e+00  -1.3520630613733251e+00  -7.8173093729882048e-01  4.2511537652211530e-02  5.4678848066816527e-02  5.1333362509146430e-01  8.0640975746247501e-01  9.0948430220087784e-01  7.7892407037462075e-01  4.2071186458023674e-01  -4.6212520024726922e-02  -5.1063211767068040e-01  -8.1296249502807694e-01  -9.0446252602790900e-01  -7.7138894613931575e-01  -4.2404918196579572e-01  5.4678848066816527e-02  4.8323111402068325e-02  2.2370275873799687e-02  -1.9312649824223967e-03  -2.1688789558684307e-02  -3.7166680122820046e-02  -5.1913999713526539e-02  -4.2792558955914377e-02  -2.5766145579749412e-02  5.7624077248267149e-03  2.3901110847981917e-02  4.2339772586634461e-02  5.3363474336297567e-02  4.8323111402068325e-02  2.2634272955457588e-02  1.7549848130754470e-03  -2.2139427008319001e-02  -4.2567750084481507e-02  -4.8402320031158574e-02  -4.5435009852630992e-02  -2.4998346068845118e-02  1.8924220385230380e-03  2.5726126181111298e-02  3.8557655462320588e-02  4.7362910592604619e-02  3.7974209032467753e-02  2.2634272955457588e-02  3.9648383550651865e-03  -2.9199029690693251e-01  -4.9779230335895491e-01  -5.7812004436819675e-01  -4.9796242309623517e-01  -2.9537138870570340e-01  1.9104749919329369e-03  2.8763942360587991e-01  4.9809641735422322e-01  5.7766076882686546e-01  5.0262840171717993e-01  2.8982651292063999e-01  3.9648383550651865e-03  -2.3290481986654163e-02  -4.9948163590532030e-01  -8.3748111448314344e-01  -9.4884245326824812e-01  -8.1169982994466416e-01  -4.5458571382032087e-01  1.9821085180188193e-02  5.0213062429246513e-01  8.3557736184207754e-01  9.4791815651665745e-01  8.1075190608706105e-01  4.5245688431650749e-01  -2.3290481986654163e-02  -4.0973077179199090e-02  -5.7548693733463940e-01  -9.4846706666595082e-01  -1.0654349184351017e+00  -9.0286318067816840e-01  -5.0374407132015264e-01  4.2220111762680243e-02  5.7701011613045028e-01  9.5048289158788424e-01  1.0627320320130522e+00  9.0360025002626776e-01  5.0248039140059575e-01  -4.0973077179199090e-02  -4.9654347125433484e-02  -5.0221172361431154e-01  -8.1069715391533215e-01  -9.0347926165929748e-01  -7.6229656361104725e-01  -4.1299086196704982e-01  5.1231018504061393e-02  5.0097057942773193e-01  8.1247642154543387e-01  9.0205433158857606e-01  7.5976012398423975e-01  4.1628575008124502e-01  -4.9654347125433484e-02  -4.1918799055435309e-02  -2.9038103648121383e-01  -4.5613944788587196e-01  -4.9925683890288625e-01  -4.1377355253719722e-01  -2.1137060840014910e-01  4.4877668209963563e-02  2.9336420559949927e-01  4.5407518112277595e-01  5.0284999819234333e-01  4.1335718234334551e-01  2.1394962004468701e-01  -4.1918799055435309e-02  -2.6945685703471660e-02  9.6094656598004577e-04  2.3526736719723249e-02  4.1631048817612246e-02  4.9083902053203211e-02  4.3007689121078864e-02  2.5664827730885527e-02  -1.2897352487530767e-03  -2.3811642942187641e-02  -4.2765777887106012e-02  -4.9485053092023425e-02  -4.4456831609937505e-02  -2.6945685703471660e-02  7.6212650876972797e-04  2.8739488798058166e-01  4.9670247671759993e-01  5.7835929020541588e-01  5.0404277986053669e-01  2.9156028968414577e-01  1.3224847793799968e-03  -2.8857452175511733e-01  -5.0054252502089436e-01  -5.7361982866644523e-01  -4.9965113746231637e-01  -2.9302151068849763e-01  7.6212650876972797e-04  2.3350341069576553e-02  4.9487244012596016e-01  8.3715797882273846e-01  9.4676642576667158e-01  8.0903790206673687e-01  4.5175140827374533e-01  -2.4248463235087638e-02  -5.0056297654149451e-01  -8.3575552296721678e-01  -9.4790037007986017e-01  -8.0900182736704851e-01  -4.5390555783283804e-01  2.3350341069576553e-02  4.3178212503512579e-02  5.7542279147553210e-01  9.4884395094598739e-01  1.0666648196672046e+00  9.0228335457605402e-01  5.0110860534789992e-01  -4.4831407554264201e-02  -5.7783217952843013e-01  -9.4716212330860472e-01  -1.0648984533586419e+00  -9.0165095296734088e-01  -5.0456499687619294e-01  4.3178212503512579e-02  4.8914992194781369e-02  5.0153193998662138e-01  8.1080505804242009e-01  9.0240018402754751e-01  7.6631170257036352e-01  4.1330055842143726e-01  -5.0427277129636475e-02  -4.9930991414824161e-01  -8.0988678946158155e-01  -9.0289346876733489e-01  -7.6230617856841176e-01  -4.1445345041991871e-01  4.8914992194781369e-02  4.7562948122283719e-02  2.8902900850341368e-01  4.5612394806738765e-01  5.0419323717764530e-01  4.1178894194168736e-01  2.1474645097766176e-01  -3.9030320261938041e-02  -2.8958496682508827e-01  -4.5575007393101896e-01  -4.9988006977148419e-01  -4.1356047042163091e-01  -2.1637017512992091e-01  4.7562948122283719e-02  2.2634272955457588e-02  1.7549848130754470e-03  -2.2139427008319001e-02  -4.2567750084481507e-02  -4.8402320031158574e-02  -4.5435009852630992e-02  -2.4998346068845118e-02  1.8924220385230380e-03  2.5726126181111298e-02  3.8557655462320588e-02  4.7362910592604619e-02  3.7974209032467753e-02  2.2634272955457588e-02  2.4212352050309639e-03  -2.2520300042462707e-02  -4.0902415801441681e-02  -5.1098080410858941e-02  -4.2112696101464994e-02  -2.3657190805305366e-02  -2.3339934060100299e-04  2.1001065322358424e-02  4.0382485378118234e-02  5.1496421840443188e-02  3.9335707272335256e-02  2.5916968096997700e-02  2.4212352050309639e-03  -2.3654465320991972e-02  -4.3676637205710578e-02  -5.3269732397332174e-02  -4.5212306871422095e-02  -2.5529267828532536e-02  -9.5293025079623214e-04  2.4130699974355248e-02  4.4962506509282504e-02  5.1821858982598938e-02  4.0213365035163991e-02  2.3663862076716658e-02  3.0449496600977529e-03  -2.3654465320991972e-02  -4.2868159045768107e-02  -5.0294433789325202e-02  -4.4217179255361248e-02  -2.7221125440792332e-02  -5.6958459592625554e-04  2.1725606661065280e-02  4.3641827364537061e-02  4.6105258897891348e-02  4.5948883580642919e-02  2.8341599200987718e-02  -7.7079720571235669e-04  -2.1269077620173226e-02  -4.2868159045768107e-02  -4.9877830346865569e-02  -4.2676293236369865e-02  -2.7123712097310810e-02  -1.8845137626281754e-03  2.6737987136321660e-02  4.5069032770830665e-02  4.7545444445350582e-02  4.2164290059935945e-02  2.7384270801293648e-02  5.5305002389458978e-04  -2.5532270286110201e-02  -4.0434634609702612e-02  -4.9877830346865569e-02  -4.0722600073154439e-02  -2.1414350531422963e-02  -1.5603223814205979e-03  2.6281913916929061e-02  4.9502164016764869e-02  5.0386032984865631e-02  4.3829623070066707e-02  2.4401689693498159e-02  -4.5060455400790022e-04  -2.4220971230156672e-02  -4.5446112756870764e-02  -5.0821513726504439e-02  -4.0722600073154439e-02  -2.7207794294414677e-02  -1.0041126325190657e-03  2.3432178553111895e-02  4.2470320653242265e-02  5.1606259682736397e-02  4.3199033941987229e-02  2.4702268287484910e-02  2.6482562788731115e-03  -2.4487837051103103e-02  -4.3284676394453582e-02  -5.3068810847361890e-02  -4.3261900783617302e-02  -2.7207794294414677e-02  6.9637051683551403e-04  2.6702154265632883e-02  4.1390716470610656e-02  4.9040411564652414e-02  4.2691209402746400e-02  2.3613546361036561e-02  2.0027539849583895e-03  -2.2159353638257835e-02  -4.1735061838556631e-02  -4.9186852328258528e-02  -4.0157078434960684e-02  -2.8158641546314304e-02  6.9637051683551403e-04  2.2560699741975089e-02  4.2332638985097405e-02  4.8920729423307545e-02  4.4627257178234438e-02  2.3708582329133709e-02  1.0649463734216295e-03  -2.1898497235351300e-02  -4.2625984325607331e-02  -5.0930372524470836e-02  -3.9628831070004505e-02  -2.5404389388060052e-02  1.9320883353919047e-04  2.2560699741975089e-02  3.9936671261064469e-02  4.9717644220887397e-02  4.5966968245973808e-02  2.4733651716570468e-02  -3.3153104005529850e-03  -2.3755342958176048e-02  -4.3972482417769826e-02  -5.2420241968697948e-02  -4.3866138250774581e-02  -2.6859787222694640e-02  1.4031826202007477e-03  2.4279727641277938e-02  3.9936671261064469e-02  4.6112892461264508e-02  4.3152423680439499e-02  2.6512109781153606e-02  -7.3109568567289061e-04  -2.6574825138587915e-02  -4.5768169888139039e-02  -4.8447259693592447e-02  -4.2695236285956006e-02  -2.5018615817078222e-02  2.5277964941423453e-04  2.9359496052232543e-02  4.3173624228502440e-02  4.6112892461264508e-02  4.3566511323066513e-02  2.6958299801069806e-02  1.2844891540985549e-03  -2.5221439366936983e-02  -4.5530458940825635e-02  -5.1231509654947494e-02  -4.6026012737827159e-02  -2.1254562688086124e-02  -5.9891908528569469e-04  2.6196732416818018e-02  4.3891525863581519e-02  4.9394365280778479e-02  4.3566511323066513e-02  2.4530360696451682e-02  -1.1800991769230773e-03  -2.3335345058383521e-02  -4.1547967956803399e-02  -5.0153139841369765e-02  -4.3460194509054584e-02  -2.3806445539840099e-02  3.5364247631786751e-04  2.5444958768034237e-02  3.8493115975921803e-02  5.1040618809847456e-02  4.1801520255172725e-02  2.4530360696451682e-02  2.4212352050309639e-03  -2.2520300042462707e-02  -4.0902415801441681e-02  -5.1098080410858941e-02  -4.2112696101464994e-02  -2.3657190805305366e-02  -2.3339934060100299e-04  2.1001065322358424e-02  4.0382485378118234e-02  5.1496421840443188e-02  3.9335707272335256e-02  2.5916968096997700e-02  2.4212352050309639e-03  -2.5404219723765741e-02  -4.2902948538965771e-02  -5.1819529664745206e-02  -4.2863069082879762e-02  -2.5996856126913465e-02  -2.4426195204172303e-04  2.2016948636105631e-02  4.4726570522381527e-02  4.9875278475292745e-02  4.4698478299866479e-02  2.2954531961541472e-02  3.4353001400961414e-03  -2.5404219723765741e-02  -4.1716825504887048e-02  2.1377167848296685e-01  4.1490206236331389e-01  5.0248170711538676e-01  4.5583004645754061e-01  2.9035990288136948e-01  4.7199467266959061e-02  -2.1598838860019678e-01  -4.1691228160977589e-01  -5.0477011367670255e-01  -4.5483264390670347e-01  -2.9008261766936921e-01  -4.1716825504887048e-02  -4.7646254990322164e-02  4.1352642119509653e-01  7.6387183171943585e-01  9.0335929040052632e-01  8.1140121465378090e-01  5.0178971435443542e-01  4.7634940783138804e-02  -4.1616729792687651e-01  -7.6213195195869010e-01  -9.0272635104979826e-01  -8.0897971164311855e-01  -5.0101006312407659e-01  -4.7646254990322164e-02  -4.1776603847330417e-02  5.0001361959279444e-01  9.0151821149611244e-01  1.0680460929107289e+00  9.4919806411476937e-01  5.7405753449560337e-01  3.8288209779113576e-02  -5.0461159064689753e-01  -9.0028816130082301e-01  -1.0645161545214843e+00  -9.4669937757852218e-01  -5.7452987750121010e-01  -4.1776603847330417e-02  -2.0381423929017255e-02  4.5318654934991870e-01  8.1218954708230973e-01  9.5063200021709438e-01  8.3347138262388065e-01  4.9525246153713104e-01  2.3543585813556877e-02  -4.5591861626161101e-01  -8.1215096990763858e-01  -9.5010272374221216e-01  -8.3507786186049149e-01  -4.9866046571127315e-01  -2.0381423929017255e-02  -1.5270904806341534e-04  2.9060165675129995e-01  5.0045740909763214e-01  5.7420897634377555e-01  4.9741357251523871e-01  2.8796773898701750e-01  3.4325579443382982e-03  -2.9288027613530287e-01  -5.0359491360329944e-01  -5.7681431791008542e-01  -4.9796652891907855e-01  -2.9095889545462633e-01  -1.5270904806341534e-04  2.5256223494795622e-02  4.4527009490615901e-02  4.7458288161537465e-02  4.1496462422144220e-02  2.5374348721619297e-02  1.5390115529479232e-03  -2.2945437680452544e-02  -4.1490108823887456e-02  -4.6536966055888099e-02  -3.5230963122213958e-02  -2.1052829096533252e-02  -2.8914263775842741e-03  2.5256223494795622e-02  4.6250936464895143e-02  -2.1491225099187286e-01  -4.1738897331410396e-01  -4.9947842016897204e-01  -4.5673295884493614e-01  -2.9141850006611569e-01  -4.2074801566431654e-02  2.1493540109929918e-01  4.1835768005641610e-01  5.0276567770436886e-01  4.5515209525529376e-01  2.8765630114701779e-01  4.6250936464895143e-02  4.7463476024334553e-02  -4.1405705042947277e-01  -7.6166909988882081e-01  -9.0219951076756622e-01  -8.1131587973995090e-01  -5.0078531177326535e-01  -5.1517557125053938e-02  4.2059392678003332e-01  7.6249435208529315e-01  9.0672249267870630e-01  8.1007715157892635e-01  5.0234309837296220e-01  4.7463476024334553e-02  3.7903844883233090e-02  -5.0141003994242517e-01  -9.0584572678945618e-01  -1.0649264544940196e+00  -9.4904349828286294e-01  -5.7767090903273144e-01  -4.1818111320946198e-02  5.0253538442320822e-01  9.0336171166455304e-01  1.0680050027714640e+00  9.5431098655747848e-01  5.7668802352804438e-01  3.7903844883233090e-02  1.9879169398123016e-02  -4.5692151843056861e-01  -8.0911854063868904e-01  -9.4770243301401103e-01  -8.3733282239909645e-01  -5.0058592903595545e-01  -2.4768215266467008