<?xml version="1.0"?>
<VTKFile type="UnstructuredGrid"  version="0.1"  >
<UnstructuredGrid>
<Piece  NumberOfPoints="2197" NumberOfCells="10368">
<Points>
<DataArray  type="Float64"  NumberOfComponents="3"  format="ascii">-3.141592653589793 -3.141592653589793 -3.141592653589793  -2.617993877991494 -3.141592653589793 -3.141592653589793  -2.094395102393196 -3.141592653589793 -3.141592653589793  -1.570796326794897 -3.141592653589793 -3.141592653589793  -1.047197551196598 -3.141592653589793 -3.141592653589793  -0.5235987755982987 -3.141592653589793 -3.141592653589793  0 -3.141592653589793 -3.141592653589793  0.5235987755982987 -3.141592653589793 -3.141592653589793  1.047197551196597 -3.141592653589793 -3.141592653589793  1.570796326794897 -3.141592653589793 -3.141592653589793  2.094395102393196 -3.141592653589793 -3.141592653589793  2.617993877991494 -3.141592653589793 -3.141592653589793  3.141592653589793 -3.141592653589793 -3.141592653589793  -3.141592653589793 -2.617993877991494 -3.141592653589793  -2.617993877991494 -2.617993877991494 -3.141592653589793  -2.094395102393196 -2.617993877991494 -3.141592653589793  -1.570796326794897 -2.617993877991494 -3.141592653589793  -1.047197551196598 -2.617993877991494 -3.141592653589793  -0.5235987755982987 -2.617993877991494 -3.141592653589793  0 -2.617993877991494 -3.141592653589793  0.5235987755982987 -2.617993877991494 -3.141592653589793  1.047197551196597 -2.617993877991494 -3.141592653589793  1.570796326794897 -2.617993877991494 -3.141592653589793  2.094395102393196 -2.617993877991494 -3.141592653589793  2.617993877991494 -2.617993877991494 -3.141592653589793  3.141592653589793 -2.617993877991494 -3.141592653589793  -3.141592653589793 -2.094395102393196 -3.141592653589793  -2.617993877991494 -2.094395102393196 -3.141592653589793  -2.094395102393196 -2.094395102393196 -3.141592653589793  -1.570796326794897 -2.094395102393196 -3.141592653589793  -1.047197551196598 -2.094395102393196 -3.141592653589793  -0.5235987755982987 -2.094395102393196 -3.141592653589793  0 -2.094395102393196 -3.141592653589793  0.5235987755982987 -2.094395102393196 -3.141592653589793  1.047197551196597 -2.094395102393196 -3.141592653589793  1.570796326794897 -2.094395102393196 -3.141592653589793  2.094395102393196 -2.094395102393196 -3.141592653589793  2.617993877991494 -2.094395102393196 -3.141592653589793  3.141592653589793 -2.094395102393196 -3.141592653589793  -3.141592653589793 -1.570796326794897 -3.141592653589793  -2.617993877991494 -1.570796326794897 -3.141592653589793  -2.094395102393196 -1.570796326794897 -3.141592653589793  -1.570796326794897 -1.570796326794897 -3.141592653589793  -1.047197551196598 -1.570796326794897 -3.141592653589793  -0.5235987755982987 -1.570796326794897 -3.141592653589793  0 -1.570796326794897 -3.141592653589793  0.5235987755982987 -1.570796326794897 -3.141592653589793  1.047197551196597 -1.570796326794897 -3.141592653589793  1.570796326794897 -1.570796326794897 -3.141592653589793  2.094395102393196 -1.570796326794897 -3.141592653589793  2.617993877991494 -1.570796326794897 -3.141592653589793  3.141592653589793 -1.570796326794897 -3.141592653589793  -3.141592653589793 -1.047197551196598 -3.141592653589793  -2.617993877991494 -1.047197551196598 -3.141592653589793  -2.094395102393196 -1.047197551196598 -3.141592653589793  -1.570796326794897 -1.047197551196598 -3.141592653589793  -1.047197551196598 -1.047197551196598 -3.141592653589793  -0.5235987755982987 -1.047197551196598 -3.141592653589793  0 -1.047197551196598 -3.141592653589793  0.5235987755982987 -1.047197551196598 -3.141592653589793  1.047197551196597 -1.047197551196598 -3.141592653589793  1.570796326794897 -1.047197551196598 -3.141592653589793  2.094395102393196 -1.047197551196598 -3.141592653589793  2.617993877991494 -1.047197551196598 -3.141592653589793  3.141592653589793 -1.047197551196598 -3.141592653589793  -3.141592653589793 -0.5235987755982987 -3.141592653589793  -2.617993877991494 -0.5235987755982987 -3.141592653589793  -2.094395102393196 -0.5235987755982987 -3.141592653589793  -1.570796326794897 -0.5235987755982987 -3.141592653589793  -1.047197551196598 -0.5235987755982987 -3.141592653589793  -0.5235987755982987 -0.5235987755982987 -3.141592653589793  0 -0.5235987755982987 -3.141592653589793  0.5235987755982987 -0.5235987755982987 -3.141592653589793  1.047197551196597 -0.5235987755982987 -3.141592653589793  1.570796326794897 -0.5235987755982987 -3.141592653589793  2.094395102393196 -0.5235987755982987 -3.141592653589793  2.617993877991494 -0.5235987755982987 -3.141592653589793  3.141592653589793 -0.5235987755982987 -3.141592653589793  -3.141592653589793 0 -3.141592653589793  -2.617993877991494 0 -3.141592653589793  -2.094395102393196 0 -3.141592653589793  -1.570796326794897 0 -3.141592653589793  -1.047197551196598 0 -3.141592653589793  -0.5235987755982987 0 -3.141592653589793  0 0 -3.141592653589793  0.5235987755982987 0 -3.141592653589793  1.047197551196597 0 -3.141592653589793  1.570796326794897 0 -3.141592653589793  2.094395102393196 0 -3.141592653589793  2.617993877991494 0 -3.141592653589793  3.141592653589793 0 -3.141592653589793  -3.141592653589793 0.5235987755982987 -3.141592653589793  -2.617993877991494 0.5235987755982987 -3.141592653589793  -2.094395102393196 0.5235987755982987 -3.141592653589793  -1.570796326794897 0.5235987755982987 -3.141592653589793  -1.047197551196598 0.5235987755982987 -3.141592653589793  -0.5235987755982987 0.5235987755982987 -3.141592653589793  0 0.5235987755982987 -3.141592653589793  0.5235987755982987 0.5235987755982987 -3.141592653589793  1.047197551196597 0.5235987755982987 -3.141592653589793  1.570796326794897 0.5235987755982987 -3.141592653589793  2.094395102393196 0.5235987755982987 -3.141592653589793  2.617993877991494 0.5235987755982987 -3.141592653589793  3.141592653589793 0.5235987755982987 -3.141592653589793  -3.141592653589793 1.047197551196597 -3.141592653589793  -2.617993877991494 1.047197551196597 -3.141592653589793  -2.094395102393196 1.047197551196597 -3.141592653589793  -1.570796326794897 1.047197551196597 -3.141592653589793  -1.047197551196598 1.047197551196597 -3.141592653589793  -0.5235987755982987 1.047197551196597 -3.141592653589793  0 1.047197551196597 -3.141592653589793  0.5235987755982987 1.047197551196597 -3.141592653589793  1.047197551196597 1.047197551196597 -3.141592653589793  1.570796326794897 1.047197551196597 -3.141592653589793  2.094395102393196 1.047197551196597 -3.141592653589793  2.617993877991494 1.047197551196597 -3.141592653589793  3.141592653589793 1.047197551196597 -3.141592653589793  -3.141592653589793 1.570796326794897 -3.141592653589793  -2.617993877991494 1.570796326794897 -3.141592653589793  -2.094395102393196 1.570796326794897 -3.141592653589793  -1.570796326794897 1.570796326794897 -3.141592653589793  -1.047197551196598 1.570796326794897 -3.141592653589793  -0.5235987755982987 1.570796326794897 -3.141592653589793  0 1.570796326794897 -3.141592653589793  0.5235987755982987 1.570796326794897 -3.141592653589793  1.047197551196597 1.570796326794897 -3.141592653589793  1.570796326794897 1.570796326794897 -3.141592653589793  2.094395102393196 1.570796326794897 -3.141592653589793  2.617993877991494 1.570796326794897 -3.141592653589793  3.141592653589793 1.570796326794897 -3.141592653589793  -3.141592653589793 2.094395102393196 -3.141592653589793  -2.617993877991494 2.094395102393196 -3.141592653589793  -2.094395102393196 2.094395102393196 -3.141592653589793  -1.570796326794897 2.094395102393196 -3.141592653589793  -1.047197551196598 2.094395102393196 -3.141592653589793  -0.5235987755982987 2.094395102393196 -3.141592653589793  0 2.094395102393196 -3.141592653589793  0.5235987755982987 2.094395102393196 -3.141592653589793  1.047197551196597 2.094395102393196 -3.141592653589793  1.570796326794897 2.094395102393196 -3.141592653589793  2.094395102393196 2.094395102393196 -3.141592653589793  2.617993877991494 2.094395102393196 -3.141592653589793  3.141592653589793 2.094395102393196 -3.141592653589793  -3.141592653589793 2.617993877991494 -3.141592653589793  -2.617993877991494 2.617993877991494 -3.141592653589793  -2.094395102393196 2.617993877991494 -3.141592653589793  -1.570796326794897 2.617993877991494 -3.141592653589793  -1.047197551196598 2.617993877991494 -3.141592653589793  -0.5235987755982987 2.617993877991494 -3.141592653589793  0 2.617993877991494 -3.141592653589793  0.5235987755982987 2.617993877991494 -3.141592653589793  1.047197551196597 2.617993877991494 -3.141592653589793  1.570796326794897 2.617993877991494 -3.141592653589793  2.094395102393196 2.617993877991494 -3.141592653589793  2.617993877991494 2.617993877991494 -3.141592653589793  3.141592653589793 2.617993877991494 -3.141592653589793  -3.141592653589793 3.141592653589793 -3.141592653589793  -2.617993877991494 3.141592653589793 -3.141592653589793  -2.094395102393196 3.141592653589793 -3.141592653589793  -1.570796326794897 3.141592653589793 -3.141592653589793  -1.047197551196598 3.141592653589793 -3.141592653589793  -0.5235987755982987 3.141592653589793 -3.141592653589793  0 3.141592653589793 -3.141592653589793  0.5235987755982987 3.141592653589793 -3.141592653589793  1.047197551196597 3.141592653589793 -3.141592653589793  1.570796326794897 3.141592653589793 -3.141592653589793  2.094395102393196 3.141592653589793 -3.141592653589793  2.617993877991494 3.141592653589793 -3.141592653589793  3.141592653589793 3.141592653589793 -3.141592653589793  -3.141592653589793 -3.141592653589793 -2.617993877991494  -2.617993877991494 -3.141592653589793 -2.617993877991494  -2.094395102393196 -3.141592653589793 -2.617993877991494  -1.570796326794897 -3.141592653589793 -2.617993877991494  -1.047197551196598 -3.141592653589793 -2.617993877991494  -0.5235987755982987 -3.141592653589793 -2.617993877991494  0 -3.141592653589793 -2.617993877991494  0.5235987755982987 -3.141592653589793 -2.617993877991494  1.047197551196597 -3.141592653589793 -2.617993877991494  1.570796326794897 
[...]
<PointData  Scalars="f_68052"> 
<DataArray  type="Float64"  Name="f_68052"  format="ascii">5.5387254389835792e-02  4.4979197230739537e-02  2.1844957632670858e-02  -2.1372700320054948e-03  -1.5939036226073830e-02  -4.3048412645043249e-02  -5.4580912007124699e-02  -4.1422138370275328e-02  -2.3330033587859955e-02  -2.5658700235088598e-03  1.7536713708675617e-02  4.1369864580478845e-02  5.5387254389835792e-02  4.6673328807415988e-02  -5.1889523127801929e-01  -9.1627471390897997e-01  -1.0645071086520459e+00  -9.6241885913765790e-01  -5.9217818731243643e-01  -4.4533087989392713e-02  5.1998920591153686e-01  9.2218528957247148e-01  1.0677276255437189e+00  9.5272883497492200e-01  5.8643296797784450e-01  4.6673328807415988e-02  1.8281619536699052e-02  -9.2424239923374352e-01  -1.5758172847386860e+00  -1.8227440919182885e+00  -1.6092528197070153e+00  -9.5146780889980276e-01  -1.8018690806722144e-02  9.1199034029855597e-01  1.5761528115548196e+00  1.8220041051558238e+00  1.6133359418059099e+00  9.6325300632401678e-01  1.8281619536699052e-02  -5.3785366227165768e-04  -1.0632916471907072e+00  -1.8260469396340406e+00  -2.0961818093848597e+00  -1.8215634472866440e+00  -1.0663708080191401e+00  6.4872622257103113e-04  1.0649790571445581e+00  1.8214491209038375e+00  2.0903513592392118e+00  1.8189601607143024e+00  1.0640033352655167e+00  -5.3785366227165768e-04  -1.7688814588138618e-02  -9.5221012792301174e-01  -1.6131323500941910e+00  -1.8204916284521784e+00  -1.5772299160815166e+00  -9.2377107762952826e-01  1.8926777462220858e-02  9.6388169159312076e-01  1.6161132901203092e+00  1.8171597328942894e+00  1.5755477640960194e+00  9.1130490813864740e-01  -1.7688814588138618e-02  -4.2385642828353456e-02  -5.9332037304959728e-01  -9.6094631217032522e-01  -1.0657717136740141e+00  -9.1052330112270197e-01  -5.1791373549150621e-01  4.4665221941270962e-02  5.9139225840644194e-01  9.4977596342639825e-01  1.0678234681024077e+00  9.2177632309671509e-01  5.1834322543060962e-01  -4.2385642828353456e-02  -5.0521783255487993e-02  -4.2736692562678938e-02  -1.9573713212821947e-02  3.7359978586333769e-04  2.1834655202795782e-02  4.0389954486247118e-02  5.3133529116716718e-02  4.0493584082445071e-02  2.2193057372185847e-02  -2.0026068158297688e-03  -1.9014996062144834e-02  -4.3736163412749017e-02  -5.0521783255487993e-02  -4.3875437779482211e-02  5.1766113719315332e-01  9.2211639935117218e-01  1.0702907882442503e+00  9.5182584923364510e-01  5.9115021798979350e-01  4.1614624509703754e-02  -5.1861563737636129e-01  -9.1280655497397900e-01  -1.0662954255875672e+00  -9.5882980362708115e-01  -5.9130233304201507e-01  -4.3875437779482211e-02  -2.0910725435375126e-02  9.1424676290379425e-01  1.5775057371141326e+00  1.8193482298230454e+00  1.6153012617426203e+00  9.5975272768777320e-01  1.9935767498000592e-02  -9.2438303733940297e-01  -1.5748169207227389e+00  -1.8239477339495600e+00  -1.6088854051427885e+00  -9.5095571217224473e-01  -2.0910725435375126e-02  8.0221651306839627e-04  1.0679205067791935e+00  1.8221223160760036e+00  2.0953546665683409e+00  1.8244793498369993e+00  1.0599248567962918e+00  1.0098734442701219e-03  -1.0675060504737324e+00  -1.8220582712618680e+00  -2.0933097818848778e+00  -1.8223856989764824e+00  -1.0670480761648855e+00  8.0221651306839627e-04  1.7099340458914862e-02  9.6056392384803735e-01  1.6157906613155564e+00  1.8180054928385201e+00  1.5738190184787699e+00  9.1493671734076176e-01  -2.2374196406959750e-02  -9.5294698704315972e-01  -1.6048693294743182e+00  -1.8221517000711709e+00  -1.5738144484023353e+00  -9.2046773543040739e-01  1.7099340458914862e-02  4.0648752308662058e-02  5.9290091920862287e-01  9.5271617212548632e-01  1.0651106558846970e+00  9.2509125928877922e-01  5.2129689536701707e-01  -4.5421045800529358e-02  -5.8940567943268485e-01  -9.6096244616077109e-01  -1.0663709774529102e+00  -9.1255926917795505e-01  -5.1812142547472928e-01  4.0648752308662058e-02  5.5387254389835792e-02  4.4979197230739537e-02  2.1844957632670858e-02  -2.1372700320054948e-03  -1.5939036226073830e-02  -4.3048412645043249e-02  -5.4580912007124699e-02  -4.1422138370275328e-02  -2.3330033587859955e-02  -2.5658700235088598e-03  1.7536713708675617e-02  4.1369864580478845e-02  5.5387254389835792e-02  4.8082774922258570e-02  2.2415131045363735e-02  -1.7061705844310334e-03  -2.1831811862169016e-02  -3.7399562744650901e-02  -5.1707500412859528e-02  -4.2728443245232901e-02  -2.5798085488318342e-02  5.4919157280399261e-03  2.4003342561696742e-02  4.2391958666446142e-02  5.3161132703768231e-02  4.8082774922258570e-02  2.0457863303031988e-02  -4.6720052311104121e-01  -8.1454410702007896e-01  -9.4879862223131972e-01  -8.4745356265883964e-01  -5.0621986590387014e-01  -2.7184897578923554e-02  4.6750612226173616e-01  8.1398476307419909e-01  9.4471185834295202e-01  8.3861707144950048e-01  5.0750223597294086e-01  2.0457863303031988e-02  -4.0443923661292805e-03  -8.1612753529557225e-01  -1.3897871095709011e+00  -1.6016099878629591e+00  -1.3982418855362624e+00  -8.1094239912552579e-01  3.5458348042781392e-03  8.1133567298861187e-01  1.3894990699158614e+00  1.5992115764393537e+00  1.3995002538430723e+00  8.1969251241049035e-01  -4.0443923661292805e-03  -2.3811626134949655e-02  -9.4679852600629355e-01  -1.5983585143473367e+00  -1.8229051677399735e+00  -1.5783668820187520e+00  -9.0695665310264040e-01  2.3642689882269301e-02  9.4794918815056928e-01  1.6021207138198885e+00  1.8243139998204667e+00  1.5713106297618611e+00  9.0454340071125050e-01  -2.3811626134949655e-02  -4.2500284429103363e-02  -8.4218825938634756e-01  -1.3995125843385317e+00  -1.5714867718895178e+00  -1.3543647926920304e+00  -7.7584202334028485e-01  4.0571416950790071e-02  8.4568721293427840e-01  1.3945610682314180e+00  1.5711908218578519e+00  1.3502820432090366e+00  7.6976539096049368e-01  -4.2500284429103363e-02  -5.0636400566993783e-02  -5.0854558895716606e-01  -8.1640868253069943e-01  -9.0700213608175972e-01  -7.6828113093803840e-01  -4.2233543232942466e-01  5.2213884352564771e-02  5.0742171866961483e-01  8.1192698323670054e-01  9.1058379545363966e-01  7.7741084640184388e-01  4.2129282829887671e-01  -5.0636400566993783e-02  -4.7210437456973842e-02  -2.1159733998979486e-02  2.8778467229221161e-03  2.5682570154616575e-02  4.1661544620555893e-02  5.1875000087691692e-02  4.5846155084811831e-02  2.4309103001787687e-02  -9.9931394859139743e-04  -2.3286266977605979e-02  -4.0805110550080383e-02  -5.0744085160956319e-02  -4.7210437456973842e-02  -2.6186707884169481e-02  4.6370928513453213e-01  8.1640822795145673e-01  9.4431197237339026e-01  8.4292302345702330e-01  5.0747014138247404e-01  2.2726597119383192e-02  -4.6754772695409030e-01  -8.1207734717262547e-01  -9.4734206098837748e-01  -8.4654691918656133e-01  -5.0887361767901329e-01  -2.6186707884169481e-02  6.0098894412896888e-03  8.1381593479891734e-01  1.3870575743493259e+00  1.6016677825028152e+00  1.3998472705913669e+00  8.1948360128029873e-01  -8.0955180109395924e-03  -8.1327757912634979e-01  -1.3877778322938257e+00  -1.6023458751781305e+00  -1.3917115327249578e+00  -8.0999334091673558e-01  6.0098894412896888e-03  2.0414110426718680e-02  9.5058528583818092e-01  1.6010525463628622e+00  1.8261961533551905e+00  1.5672824814085489e+00  9.0683354042160114e-01  -2.5765305996844703e-02  -9.4790205054020538e-01  -1.5981039277960649e+00  -1.8235340195234153e+00  -1.5771399120693075e+00  -9.0737878183142073e-01  2.0414110426718680e-02  4.2583314802473980e-02  8.4606073768157730e-01  1.3969645162198623e+00  1.5732475822724898e+00  1.3532138758455805e+00  7.7243612697796671e-01  -4.5720143115261638e-02  -8.4034854831090033e-01  -1.3967994445901302e+00  -1.5748900759700954e+00  -1.3523571577708464e+00  -7.8038043759139064e-01  4.2583314802473980e-02  5.4424058729896807e-02  5.1241267950942249e-01  8.0655691828647247e-01  9.0930863166173304e-01  7.7766091678211180e-01  4.1999995891323727e-01  -4.6185124207564376e-02  -5.0969382024442900e-01  -8.1252067359224778e-01  -9.0450009247695151e-01  -7.7070898893442419e-01  -4.2327700876580726e-01  5.4424058729896807e-02  4.8082774922258570e-02  2.2415131045363735e-02  -1.7061705844310334e-03  -2.1831811862169016e-02  -3.7399562744650901e-02  -5.1707500412859528e-02  -4.2728443245232901e-02  -2.5798085488318342e-02  5.4919157280399261e-03  2.4003342561696742e-02  4.2391958666446142e-02  5.3161132703768231e-02  4.8082774922258570e-02  2.2690131927053644e-02  1.7042811552060411e-03  -2.2254218575376464e-02  -4.2662111395718308e-02  -4.8435102730698794e-02  -4.5263266022699519e-02  -2.4988466019155043e-02  1.8166840912163609e-03  2.5695433972972748e-02  3.8681080217752170e-02  4.7437415610411808e-02  3.8113381711759473e-02  2.2690131927053644e-02  3.8647438777217572e-03  -2.9170212178808880e-01  -4.9761826134164883e-01  -5.7783599036421740e-01  -4.9772398742674473e-01  -2.9497763379476638e-01  1.8695251700363764e-03  2.8748597554297539e-01  4.9791584239927689e-01  5.7734930607380464e-01  5.0222037688294929e-01  2.8957569037472891e-01  3.8647438777217572e-03  -2.3354661515957671e-02  -4.9924307262317508e-01  -8.3733000829160309e-01  -9.4874357489885874e-01  -8.1158105186588303e-01  -4.5450872533221409e-01  2.0004542280708797e-02  5.0183982895126722e-01  8.3545685467493869e-01  9.4787235585927210e-01  8.1061087708189616e-01  4.5236961199338954e-01  -2.3354661515957671e-02  -4.1021118200504095e-02  -5.7526446375369533e-01  -9.4839349080374680e-01  -1.0656900126713971e+00  -9.0299343770408669e-01  -5.0342884920180586e-01  4.2329384098975846e-02  5.7674505391544306e-01  9.5034966843156055e-01  1.0630551507754191e+00  9.0368432167349333e-01  5.0223289523942571e-01  -4.1021118200504095e-02  -4.9640808866441004e-02  -5.0182024423512750e-01  -8.1055945798961160e-01  -9.0356866191493690e-01  -7.6211218003822190e-01  -4.1271379103892741e-01  5.1175613226671017e-02  5.0064307302514888e-01  8.1233593377141611e-01  9.0221695723766049e-01  7.5965017840739024e-01  4.1592799391775076e-01  -4.9640808866441004e-02  -4.1948538028493278e-02  -2.9012163154614795e-01  -4.5594237603726684e-01  -4.9911333535475494e-01  -4.1348989363666450e-01  -2.1134628006753550e-01  4.4715578246657867e-02  2.9305675257961383e-01  4.5400714591164065e-01  5.0255778172631005e-01  4.1307196458046197e-01  2.1385834579247159e-01  -4.1948538028493278e-02  -2.6882007276611199e-02  9.2638747704322467e-04  2.3552835256127034e-02  4.1673271137538041e-02  4.9111918894180623e-02  4.2992770069771598e-02  2.5627623405181630e-02  -1.2779224880808643e-03  -2.3876163272793030e-02  -4.2853632234866802e-02  -4.9496370209571726e-02  -4.4290554612739723e-02  -2.6882007276611199e-02  7.5795446103987070e-04  2.8725643380097327e-01  4.9657336789545964e-01  5.7802426216326763e-01  5.0359879578329902e-01  2.9125295066330548e-01  1.2774398984732567e-03  -2.8838079674159500e-01  -5.0031246011506769e-01  -5.7346828352801227e-01  -4.9935102793805924e-01  -2.9271020222106886e-01  7.5795446103987070e-04  2.3428966340801379e-02  4.9478630874351792e-01  8.3699910303004255e-01  9.4673672961763966e-01  8.0895466353237877e-01  4.5168107449723549e-01  -2.4261269649400223e-02  -5.0030741536051648e-01  -8.3564220167344327e-01  -9.4784107200544132e-01  -8.0894421461944954e-01  -4.5386130595302338e-01  2.3428966340801379e-02  4.3237397614304979e-02  5.7519383937221047e-01  9.4874791089232346e-01  1.0668796814345207e+00  9.0240353710773713e-01  5.0092132419158564e-01  -4.4762880364617778e-02  -5.7753923757138947e-01  -9.4713771740266905e-01  -1.0651617775498963e+00  -9.0182149443993731e-01  -5.0419359609377057e-01  4.3237397614304979e-02  4.8958388423002028e-02  5.0118652507374983e-01  8.1071076325708624e-01  9.0253715535256351e-01  7.6603490260096874e-01  4.1302472793056916e-01  -5.0416496921513100e-02  -4.9897048348407436e-01  -8.0975068982701126e-01  -9.0300734933454629e-01  -7.6211524190913549e-01  -4.1415169744960573e-01  4.8958388423002028e-02  4.7318785893076351e-02  2.8883441843764718e-01  4.5602177525223875e-01  5.0385795342181017e-01  4.1151311587652567e-01  2.1464167927663852e-01  -3.9124189399684081e-02  -2.8934684627877394e-01  -4.5558469786123590e-01  -4.9971195077786207e-01  -4.1328144815187251e-01  -2.1620115747241106e-01  4.7318785893076351e-02  2.2690131927053644e-02  1.7042811552060411e-03  -2.2254218575376464e-02  -4.2662111395718308e-02  -4.8435102730698794e-02  -4.5263266022699519e-02  -2.4988466019155043e-02  1.8166840912163609e-03  2.5695433972972748e-02  3.8681080217752170e-02  4.7437415610411808e-02  3.8113381711759473e-02  2.2690131927053644e-02  2.3523315448576872e-03  -2.2601161274682428e-02  -4.0980444367568480e-02  -5.1099886030891661e-02  -4.2160001336056095e-02  -2.3707140087221697e-02  -2.2913260411987636e-04  2.1138884521153416e-02  4.0476642112151774e-02  5.1461406305156214e-02  3.9458954141300108e-02  2.5906890313010432e-02  2.3523315448576872e-03  -2.3706406658414884e-02  -4.3639353585993433e-02  -5.3138338294414403e-02  -4.5116205535061127e-02  -2.5500998777930165e-02  -9.2226377544285922e-04  2.4157167630701019e-02  4.4885868628319579e-02  5.1685539302077026e-02  4.0266875032317365e-02  2.3734333620814202e-02  2.9489963361355085e-03  -2.3706406658414884e-02  -4.2889504981523684e-02  -5.0210518655127115e-02  -4.4075627387235000e-02  -2.7086594405261701e-02  -5.6056321360636505e-04  2.1806507842307074e-02  4.3643194201030903e-02  4.6183695586154712e-02  4.5763330668829233e-02  2.8175256684641565e-02  -7.5314670425131189e-04  -2.1408135728191835e-02  -4.2889504981523684e-02  -4.9889755866420325e-02  -4.2653674569019355e-02  -2.7001140358450134e-02  -1.8253888952595402e-03  2.6620235313223089e-02  4.4987705027385978e-02  4.7653058375996420e-02  4.2163830085166130e-02  2.7251110489130145e-02  5.3264561446477300e-04  -2.5447527606915696e-02  -4.0474023517095878e-02  -4.9889755866420325e-02  -4.0807816420831297e-02  -2.1547428036488046e-02  -1.5123975618559560e-03  2.6176844749413865e-02  4.9204109320293885e-02  5.0339674310485007e-02  4.3829616825464213e-02  2.4395714732087782e-02  -4.3082312840624835e-04  -2.4174396400504065e-02  -4.5263632129499881e-02  -5.0731959976007532e-02  -4.0807816420831297e-02  -2.7165794205509242e-02  -9.7123265879025709e-04  2.3505162090921256e-02  4.2458729424951991e-02  5.1487454832628357e-02  4.3174514230471160e-02  2.4709609858035487e-02  2.5813599161661625e-03  -2.4488990396383761e-02  -4.3253400643778264e-02  -5.2943626582061871e-02  -4.3233296378944207e-02  -2.7165794205509242e-02  6.7340249466010034e-04  2.6676745127541302e-02  4.1448674838309198e-02  4.9079320754213104e-02  4.2714536821702093e-02  2.3665640218930230e-02  1.9510597426347974e-03  -2.2260272213146373e-02  -4.1779187725799645e-02  -4.9262281018639963e-02  -4.0256529979692417e-02  -2.8075440017471781e-02  6.7340249466010034e-04  2.2638502265150410e-02  4.2335153047570177e-02  4.8858892141641373e-02  4.4567004961515763e-02  2.3774561824423616e-02  1.0318964577100708e-03  -2.2000601704300904e-02  -4.2614086261578157e-02  -5.0869179019739606e-02  -3.9709813065917796e-02  -2.5369729935126421e-02  1.8337476469382986e-04  2.2638502265150410e-02  4.0052987515352995e-02  4.9680524126081094e-02  4.5784188765703990e-02  2.4670983678999378e-02  -3.2259659702702590e-03  -2.3821025454339659e-02  -4.3952688446112373e-02  -5.2278612386733224e-02  -4.3741599405206374e-02  -2.6732961542523134e-02  1.3609220003897660e-03  2.4283620537786751e-02  4.0052987515352995e-02  4.6267179960241107e-02  4.3125315381175595e-02  2.6400075398591016e-02  -7.0757169747823765e-04  -2.6455068017491125e-02  -4.5658032279373290e-02  -4.8508197954040128e-02  -4.2680848415260236e-02  -2.4954215285257025e-02  2.5120726989722949e-04  2.9155203592316499e-02  4.3153464962318977e-02  4.6267179960241107e-02  4.3565968104099503e-02  2.6882090265234505e-02  1.2437064750998486e-03  -2.5145595958070168e-02  -4.5362787977135915e-02  -5.1120307788968547e-02  -4.5940604092909919e-02  -2.1400633041150727e-02  -5.7076150550802274e-04  2.6101519006694093e-02  4.3766697638395455e-02  4.9376756517307427e-02  4.3565968104099503e-02  2.4547718556861772e-02  -1.1439021717268576e-03  -2.3369408591001842e-02  -4.1577024554144387e-02  -5.0103357077237440e-02  -4.3417405926513462e-02  -2.3867077173419290e-02  3.5176081613098658e-04  2.5450374487430000e-02  3.8612190993838329e-02  5.0923120624163633e-02  4.1815265614490671e-02  2.4547718556861772e-02  2.3523315448576872e-03  -2.2601161274682428e-02  -4.0980444367568480e-02  -5.1099886030891661e-02  -4.2160001336056095e-02  -2.3707140087221697e-02  -2.2913260411987636e-04  2.1138884521153416e-02  4.0476642112151774e-02  5.1461406305156214e-02  3.9458954141300108e-02  2.5906890313010432e-02  2.3523315448576872e-03  -2.5380276284133831e-02  -4.2802497302419397e-02  -5.1749199059303849e-02  -4.2952895483163819e-02  -2.5981953828007970e-02  -2.5956491344629484e-04  2.2083396217097997e-02  4.4651953708126725e-02  4.9851385682687002e-02  4.4687793169772470e-02  2.3005489373602164e-02  3.3197704043986713e-03  -2.5380276284133831e-02  -4.1741376897314823e-02  2.1367864285764399e-01  4.1457224595361025e-01  5.0218250183254654e-01  4.5571090016438270e-01  2.9013027866868230e-01  4.6979233520515723e-02  -2.1582808206231802e-01  -4.1652154846656042e-01  -5.0445167283621795e-01  -4.5470125479003959e-01  -2.8982274186434992e-01  -4.1741376897314823e-02  -4.7706937679711917e-02  4.1327732349178625e-01  7.6362383892749519e-01  9.0347632448098480e-01  8.1128667352559591e-01  5.0144391502249752e-01  4.7680279556485239e-02  -4.1579699472409981e-01  -7.6195012413742713e-01  -9.0284797861309884e-01  -8.0888930299724693e-01  -5.0064164753974993e-01  -4.7706937679711917e-02  -4.1805826779072956e-02  4.9981343337669415e-01  9.0168255159140920e-01  1.0682214243328856e+00  9.4910145366980936e-01  5.7387337793796234e-01  3.8521413081497376e-02  -5.0426917184184805e-01  -9.0048469258814745e-01  -1.0647909617329672e+00  -9.4667223518188803e-01  -5.7433668860647447e-01  -4.1805826779072956e-02  -2.0515635119748153e-02  4.5308480580681348e-01  8.1200767916318040e-01  9.5049576471669617e-01  8.3342310482847104e-01  4.9516295460923199e-01  2.3621181065600461e-02  -4.5581126803909727e-01  -8.1201520270349203e-01  -9.4997461193866495e-01  -8.3497609075949342e-01  -4.9846437987334985e-01  -2.0515635119748153e-02  -1.2461668439182885e-04  2.9032860683968159e-01  5.0009150667913493e-01  5.7402425689589298e-01  4.9724627386102915e-01  2.8780587871516572e-01  3.3515138775513566e-03  -2.9259193388671478e-01  -5.0317065170984920e-01  -5.7655945536549869e-01  -4.9782807923081762e-01  -2.9068742810691173e-01  -1.2461668439182885e-04  2.5238502428122703e-02  4.4455910052317485e-02  4.7536344178089850e-02  4.1549504646211370e-02  2.5340404722351873e-02  1.4985618678046472e-03  -2.3012713933802869e-02  -4.1391183356155901e-02  -4.6674912161455015e-02  -3.5526107101225973e-02  -2.1210560727125800e-02  -2.8318629706115643e-03  2.5238502428122703e-02  4.6059114794963607e-02  -2.1477265958081584e-01  -4.1701312270417712e-01  -4.9929555253992264e-01  -4.5655048015518990e-01  -2.9113076915396752e-01  -4.2055943532028142e-02  2.1474868389285084e-01  4.1796164347584736e-01  5.0243593100163075e-01  4.5505638063423409e-01  2.8752634375520530e-01  4.6059114794963607e-02  4.7525193706228173e-02  -4.1377362180310318e-01  -7.6150122595257441e-01  -9.0232220016769482e-01  -8.1114904707473834e-01  -5.0040143675131044e-01  -5.1489139283228749e-02  4.2013491195660729e-01  7.6228489378427911e-01  9.0674303962703806e-01  8.1001568894423981e-01  5.0198564693552294e-01  4.7525193706228173e-02  3.8126272104332996e-02  -5.0114217425715279e-01  -9.0588090821436196e-01  -1.0652036413672947e+00  -9.4893912383525647e-01  -5.7736592765919881e-01  -4.1868177598778776e-02  5.0229049836663431e-01  9.0347361200697307e-01  1.0681733093341139e+00  9.5406653532702035e-01  5.7642189056011273e-01  3.8126272104332996e-02  2.0060418895365958e-02  -4.5677235574971253e-01  -8.0907128992452748e-01  -9.4766011359355451e-01  -8.3718083735840310e-01  -5.0033263964634966e-01  -2.4774203501198331