<?xml version="1.0"?>
<VTKFile type="UnstructuredGrid"  version="0.1"  >
<UnstructuredGrid>
<Piece  NumberOfPoints="2197" NumberOfCells="10368">
<Points>
<DataArray  type="Float64"  NumberOfComponents="3"  format="ascii">-3.141592653589793 -3.141592653589793 -3.141592653589793  -2.617993877991494 -3.141592653589793 -3.141592653589793  -2.094395102393196 -3.141592653589793 -3.141592653589793  -1.570796326794897 -3.141592653589793 -3.141592653589793  -1.047197551196598 -3.141592653589793 -3.141592653589793  -0.5235987755982987 -3.141592653589793 -3.141592653589793  0 -3.141592653589793 -3.141592653589793  0.5235987755982987 -3.141592653589793 -3.141592653589793  1.047197551196597 -3.141592653589793 -3.141592653589793  1.570796326794897 -3.141592653589793 -3.141592653589793  2.094395102393196 -3.141592653589793 -3.141592653589793  2.617993877991494 -3.141592653589793 -3.141592653589793  3.141592653589793 -3.141592653589793 -3.141592653589793  -3.141592653589793 -2.617993877991494 -3.141592653589793  -2.617993877991494 -2.617993877991494 -3.141592653589793  -2.094395102393196 -2.617993877991494 -3.141592653589793  -1.570796326794897 -2.617993877991494 -3.141592653589793  -1.047197551196598 -2.617993877991494 -3.141592653589793  -0.5235987755982987 -2.617993877991494 -3.141592653589793  0 -2.617993877991494 -3.141592653589793  0.5235987755982987 -2.617993877991494 -3.141592653589793  1.047197551196597 -2.617993877991494 -3.141592653589793  1.570796326794897 -2.617993877991494 -3.141592653589793  2.094395102393196 -2.617993877991494 -3.141592653589793  2.617993877991494 -2.617993877991494 -3.141592653589793  3.141592653589793 -2.617993877991494 -3.141592653589793  -3.141592653589793 -2.094395102393196 -3.141592653589793  -2.617993877991494 -2.094395102393196 -3.141592653589793  -2.094395102393196 -2.094395102393196 -3.141592653589793  -1.570796326794897 -2.094395102393196 -3.141592653589793  -1.047197551196598 -2.094395102393196 -3.141592653589793  -0.5235987755982987 -2.094395102393196 -3.141592653589793  0 -2.094395102393196 -3.141592653589793  0.5235987755982987 -2.094395102393196 -3.141592653589793  1.047197551196597 -2.094395102393196 -3.141592653589793  1.570796326794897 -2.094395102393196 -3.141592653589793  2.094395102393196 -2.094395102393196 -3.141592653589793  2.617993877991494 -2.094395102393196 -3.141592653589793  3.141592653589793 -2.094395102393196 -3.141592653589793  -3.141592653589793 -1.570796326794897 -3.141592653589793  -2.617993877991494 -1.570796326794897 -3.141592653589793  -2.094395102393196 -1.570796326794897 -3.141592653589793  -1.570796326794897 -1.570796326794897 -3.141592653589793  -1.047197551196598 -1.570796326794897 -3.141592653589793  -0.5235987755982987 -1.570796326794897 -3.141592653589793  0 -1.570796326794897 -3.141592653589793  0.5235987755982987 -1.570796326794897 -3.141592653589793  1.047197551196597 -1.570796326794897 -3.141592653589793  1.570796326794897 -1.570796326794897 -3.141592653589793  2.094395102393196 -1.570796326794897 -3.141592653589793  2.617993877991494 -1.570796326794897 -3.141592653589793  3.141592653589793 -1.570796326794897 -3.141592653589793  -3.141592653589793 -1.047197551196598 -3.141592653589793  -2.617993877991494 -1.047197551196598 -3.141592653589793  -2.094395102393196 -1.047197551196598 -3.141592653589793  -1.570796326794897 -1.047197551196598 -3.141592653589793  -1.047197551196598 -1.047197551196598 -3.141592653589793  -0.5235987755982987 -1.047197551196598 -3.141592653589793  0 -1.047197551196598 -3.141592653589793  0.5235987755982987 -1.047197551196598 -3.141592653589793  1.047197551196597 -1.047197551196598 -3.141592653589793  1.570796326794897 -1.047197551196598 -3.141592653589793  2.094395102393196 -1.047197551196598 -3.141592653589793  2.617993877991494 -1.047197551196598 -3.141592653589793  3.141592653589793 -1.047197551196598 -3.141592653589793  -3.141592653589793 -0.5235987755982987 -3.141592653589793  -2.617993877991494 -0.5235987755982987 -3.141592653589793  -2.094395102393196 -0.5235987755982987 -3.141592653589793  -1.570796326794897 -0.5235987755982987 -3.141592653589793  -1.047197551196598 -0.5235987755982987 -3.141592653589793  -0.5235987755982987 -0.5235987755982987 -3.141592653589793  0 -0.5235987755982987 -3.141592653589793  0.5235987755982987 -0.5235987755982987 -3.141592653589793  1.047197551196597 -0.5235987755982987 -3.141592653589793  1.570796326794897 -0.5235987755982987 -3.141592653589793  2.094395102393196 -0.5235987755982987 -3.141592653589793  2.617993877991494 -0.5235987755982987 -3.141592653589793  3.141592653589793 -0.5235987755982987 -3.141592653589793  -3.141592653589793 0 -3.141592653589793  -2.617993877991494 0 -3.141592653589793  -2.094395102393196 0 -3.141592653589793  -1.570796326794897 0 -3.141592653589793  -1.047197551196598 0 -3.141592653589793  -0.5235987755982987 0 -3.141592653589793  0 0 -3.141592653589793  0.5235987755982987 0 -3.141592653589793  1.047197551196597 0 -3.141592653589793  1.570796326794897 0 -3.141592653589793  2.094395102393196 0 -3.141592653589793  2.617993877991494 0 -3.141592653589793  3.141592653589793 0 -3.141592653589793  -3.141592653589793 0.5235987755982987 -3.141592653589793  -2.617993877991494 0.5235987755982987 -3.141592653589793  -2.094395102393196 0.5235987755982987 -3.141592653589793  -1.570796326794897 0.5235987755982987 -3.141592653589793  -1.047197551196598 0.5235987755982987 -3.141592653589793  -0.5235987755982987 0.5235987755982987 -3.141592653589793  0 0.5235987755982987 -3.141592653589793  0.5235987755982987 0.5235987755982987 -3.141592653589793  1.047197551196597 0.5235987755982987 -3.141592653589793  1.570796326794897 0.5235987755982987 -3.141592653589793  2.094395102393196 0.5235987755982987 -3.141592653589793  2.617993877991494 0.5235987755982987 -3.141592653589793  3.141592653589793 0.5235987755982987 -3.141592653589793  -3.141592653589793 1.047197551196597 -3.141592653589793  -2.617993877991494 1.047197551196597 -3.141592653589793  -2.094395102393196 1.047197551196597 -3.141592653589793  -1.570796326794897 1.047197551196597 -3.141592653589793  -1.047197551196598 1.047197551196597 -3.141592653589793  -0.5235987755982987 1.047197551196597 -3.141592653589793  0 1.047197551196597 -3.141592653589793  0.5235987755982987 1.047197551196597 -3.141592653589793  1.047197551196597 1.047197551196597 -3.141592653589793  1.570796326794897 1.047197551196597 -3.141592653589793  2.094395102393196 1.047197551196597 -3.141592653589793  2.617993877991494 1.047197551196597 -3.141592653589793  3.141592653589793 1.047197551196597 -3.141592653589793  -3.141592653589793 1.570796326794897 -3.141592653589793  -2.617993877991494 1.570796326794897 -3.141592653589793  -2.094395102393196 1.570796326794897 -3.141592653589793  -1.570796326794897 1.570796326794897 -3.141592653589793  -1.047197551196598 1.570796326794897 -3.141592653589793  -0.5235987755982987 1.570796326794897 -3.141592653589793  0 1.570796326794897 -3.141592653589793  0.5235987755982987 1.570796326794897 -3.141592653589793  1.047197551196597 1.570796326794897 -3.141592653589793  1.570796326794897 1.570796326794897 -3.141592653589793  2.094395102393196 1.570796326794897 -3.141592653589793  2.617993877991494 1.570796326794897 -3.141592653589793  3.141592653589793 1.570796326794897 -3.141592653589793  -3.141592653589793 2.094395102393196 -3.141592653589793  -2.617993877991494 2.094395102393196 -3.141592653589793  -2.094395102393196 2.094395102393196 -3.141592653589793  -1.570796326794897 2.094395102393196 -3.141592653589793  -1.047197551196598 2.094395102393196 -3.141592653589793  -0.5235987755982987 2.094395102393196 -3.141592653589793  0 2.094395102393196 -3.141592653589793  0.5235987755982987 2.094395102393196 -3.141592653589793  1.047197551196597 2.094395102393196 -3.141592653589793  1.570796326794897 2.094395102393196 -3.141592653589793  2.094395102393196 2.094395102393196 -3.141592653589793  2.617993877991494 2.094395102393196 -3.141592653589793  3.141592653589793 2.094395102393196 -3.141592653589793  -3.141592653589793 2.617993877991494 -3.141592653589793  -2.617993877991494 2.617993877991494 -3.141592653589793  -2.094395102393196 2.617993877991494 -3.141592653589793  -1.570796326794897 2.617993877991494 -3.141592653589793  -1.047197551196598 2.617993877991494 -3.141592653589793  -0.5235987755982987 2.617993877991494 -3.141592653589793  0 2.617993877991494 -3.141592653589793  0.5235987755982987 2.617993877991494 -3.141592653589793  1.047197551196597 2.617993877991494 -3.141592653589793  1.570796326794897 2.617993877991494 -3.141592653589793  2.094395102393196 2.617993877991494 -3.141592653589793  2.617993877991494 2.617993877991494 -3.141592653589793  3.141592653589793 2.617993877991494 -3.141592653589793  -3.141592653589793 3.141592653589793 -3.141592653589793  -2.617993877991494 3.141592653589793 -3.141592653589793  -2.094395102393196 3.141592653589793 -3.141592653589793  -1.570796326794897 3.141592653589793 -3.141592653589793  -1.047197551196598 3.141592653589793 -3.141592653589793  -0.5235987755982987 3.141592653589793 -3.141592653589793  0 3.141592653589793 -3.141592653589793  0.5235987755982987 3.141592653589793 -3.141592653589793  1.047197551196597 3.141592653589793 -3.141592653589793  1.570796326794897 3.141592653589793 -3.141592653589793  2.094395102393196 3.141592653589793 -3.141592653589793  2.617993877991494 3.141592653589793 -3.141592653589793  3.141592653589793 3.141592653589793 -3.141592653589793  -3.141592653589793 -3.141592653589793 -2.617993877991494  -2.617993877991494 -3.141592653589793 -2.617993877991494  -2.094395102393196 -3.141592653589793 -2.617993877991494  -1.570796326794897 -3.141592653589793 -2.617993877991494  -1.047197551196598 -3.141592653589793 -2.617993877991494  -0.5235987755982987 -3.141592653589793 -2.617993877991494  0 -3.141592653589793 -2.617993877991494  0.5235987755982987 -3.141592653589793 -2.617993877991494  1.047197551196597 -3.141592653589793 -2.617993877991494  1.570796326794897 
[...]
<PointData  Scalars="f_186996"> 
<DataArray  type="Float64"  Name="f_186996"  format="ascii">6.8558205970824834e-02  5.9250721576375183e-02  -2.2747678337796287e-03  -7.2850948920829689e-03  3.7223405928739576e-03  -4.1641558298006372e-02  -7.2878500865390577e-02  -3.6296224274670691e-02  -1.2972661682851293e-02  -6.7250778170059086e-03  -1.3724062803145424e-02  5.1727609821263662e-02  6.8558205970824834e-02  4.9216851188144936e-02  -6.3380436354647407e-01  -9.8788313498763558e-01  -1.0754510154883883e+00  -1.0385821978431926e+00  -7.2653161532397459e-01  -5.4934329476533317e-02  6.2763156823181976e-01  1.0650579443824204e+00  1.0704901662816091e+00  9.6762762295523497e-01  7.1446942427234861e-01  4.9216851188144936e-02  4.5905186882054362e-03  -1.0709443503080547e+00  -1.4605355617812703e+00  -1.5613680610966454e+00  -1.6113887709910699e+00  -9.6456173351257291e-01  1.1181779505857697e-02  9.7702383802361314e-01  1.4674466055356403e+00  1.5820003058159093e+00  1.6190357299448530e+00  1.0351490520533071e+00  4.5905186882054362e-03  4.9383004496954058e-04  -1.0587020797704634e+00  -1.5936376022679413e+00  -1.9044934301031453e+00  -1.5811638091903215e+00  -1.0662549999772659e+00  2.0997070662187090e-03  1.0806216604594547e+00  1.5587426268001854e+00  1.8917909776411934e+00  1.5545978623423278e+00  1.0788818278197900e+00  4.9383004496954058e-04  1.1155522327711503e-02  -9.6715251592995721e-01  -1.6190829905795023e+00  -1.5580254082317599e+00  -1.4640002943682868e+00  -1.0706047494781175e+00  4.9321336901523762e-03  1.0430780915947531e+00  1.6212020690077418e+00  1.5722797763695295e+00  1.4618586990258737e+00  9.7522151165510107e-01  1.1155522327711503e-02  -5.2133320928025167e-02  -7.2930187965972793e-01  -1.0326550405507990e+00  -1.0810999117685895e+00  -9.7397222540541806e-01  -6.2587585762340459e-01  4.7188539811293798e-02  7.2359038019382038e-01  9.6619534214196801e-01  1.0640066729391755e+00  1.0628948633125261e+00  6.2829019362998506e-01  -5.2133320928025167e-02  -5.7156462587929044e-02  -4.2663034387497023e-02  -4.5500966175731818e-03  1.4805574600011578e-04  -5.1966620175401754e-03  5.2495548689790901e-02  6.0614517628984774e-02  5.2729674628794146e-02  -7.5361072201227562e-03  -4.8370077006491931e-03  -5.3427177577837093e-03  -4.9409304781190384e-02  -5.7156462587929044e-02  -5.9752887661292491e-02  6.2891953908971976e-01  1.0637699306043293e+00  1.0706291138399850e+00  9.7155712625962176e-01  7.2359015238618785e-01  4.0114755863895311e-02  -6.2680768924064112e-01  -9.8061574087876580e-01  -1.0763328041069287e+00  -1.0339737259109021e+00  -7.1809591474772805e-01  -5.9752887661292491e-02  8.2696965528757660e-03  9.8347542963958690e-01  1.4650701183222059e+00  1.5798257947602656e+00  1.6195298438967840e+00  1.0343413045834393e+00  4.9213287245967715e-03  -1.0712615678255797e+00  -1.4630722006077634e+00  -1.5629780060207128e+00  -1.6137286144037004e+00  -9.6288509540004541e-01  8.2696965528757660e-03  -2.3501053073053859e-03  1.0855693136579221e+00  1.5646057640596085e+00  1.9027278331683586e+00  1.5606885655391254e+00  1.0739522724737918e+00  -7.7301525541221725e-04  -1.0680057979638891e+00  -1.5832617383479677e+00  -1.8990507453570884e+00  -1.5793998927850748e+00  -1.0702655467562359e+00  -2.3501053073053859e-03  7.7309502076701739e-03  1.0373160637902124e+00  1.6202589731000800e+00  1.5740202116193540e+00  1.4662963471621409e+00  9.7297067600465925e-01  6.6468764549513348e-03  -9.7137037976217300e-01  -1.5996528215599319e+00  -1.5618017850057311e+00  -1.4612037054398499e+00  -1.0603256886821542e+00  7.7309502076701739e-03  3.6717443819974244e-02  7.2682682051041292e-01  9.6638886679636227e-01  1.0668707635625105e+00  1.0678752273859877e+00  6.3900267193468840e-01  -6.2674550631411349e-02  -7.1864406265205139e-01  -1.0345098121871514e+00  -1.0785012240917757e+00  -9.7795750137416426e-01  -6.2588604044064755e-01  3.6717443819974244e-02  6.8558205970824834e-02  5.9250721576375183e-02  -2.2747678337796287e-03  -7.2850948920829689e-03  3.7223405928739576e-03  -4.1641558298006372e-02  -7.2878500865390577e-02  -3.6296224274670691e-02  -1.2972661682851293e-02  -6.7250778170059086e-03  -1.3724062803145424e-02  5.1727609821263662e-02  6.8558205970824834e-02  5.9035967771310316e-02  1.9724812095452848e-02  -2.6572408325636801e-02  -1.5201780439302665e-02  -3.7715480407245844e-02  -6.2691970286558832e-02  -4.2750551940358587e-02  -1.7074471165397859e-02  2.1573411791299790e-02  1.0889694394148858e-02  4.1713938765296631e-02  7.4167953443238441e-02  5.9035967771310316e-02  5.5260835295644923e-03  -5.6345370301994102e-01  -8.4510494337690323e-01  -9.5243681789225243e-01  -9.4238520172852613e-01  -5.8186118065724768e-01  -3.0875143924673561e-02  5.6220799853262393e-01  8.6866381579888474e-01  9.4606250084104171e-01  8.8248483449507076e-01  5.9399210837129224e-01  5.5260835295644923e-03  -2.2840652419081005e-02  -8.7105780166982505e-01  -1.2899152206498965e+00  -1.4926102457224835e+00  -1.4062645689557816e+00  -7.9786018432604944e-01  2.9074081595252863e-02  8.4239214634648851e-01  1.2843075239938027e+00  1.4839397765603302e+00  1.4043482411561716e+00  8.5776445754258512e-01  -2.2840652419081005e-02  -1.2279735708606009e-02  -9.4652885194056324e-01  -1.4835319321200953e+00  -1.6866176321189166e+00  -1.4520950159164303e+00  -9.2400679367073635e-01  2.1788660519508458e-02  9.4368572916691174e-01  1.4935456475589963e+00  1.6869928719125986e+00  1.4105154348011906e+00  9.4045261702163829e-01  -1.2279735708606009e-02  -4.0644335934363354e-02  -8.9384952326454248e-01  -1.4035968256991047e+00  -1.4072968494140781e+00  -1.3415088542992439e+00  -9.1816622458672892e-01  4.3620828088037057e-02  9.3695990049345579e-01  1.3974506564829547e+00  1.4392918790585358e+00  1.3308664177342255e+00  8.3862181932807045e-01  -4.0644335934363354e-02  -7.1320863030228818e-02  -5.9793895907307859e-01  -8.5294466689866222e-01  -9.3788277617916460e-01  -8.3671000777662896e-01  -4.7419089520987989e-01  6.2889392000288244e-02  5.8546063134793558e-01  8.0319420078184101e-01  9.2843396068250672e-01  9.2062083920363924e-01  4.7521863020226746e-01  -7.1320863030228818e-02  -5.4851665926451583e-02  -8.9330656296262873e-03  1.7783811760027080e-02  1.2881988647969257e-02  4.1417830471305775e-02  7.0080222278111726e-02  4.7658922423368534e-02  2.5733217367112045e-02  -2.5673530038742304e-02  -2.0592396318486351e-02  -4.2658400670700564e-02  -6.0652280923298760e-02  -5.4851665926451583e-02  -2.3176251984887413e-02  5.5496054853491306e-01  8.6680178996364321e-01  9.4767232561594295e-01  8.9325097024748679e-01  5.9971385445232173e-01  1.4841327657510566e-02  -5.6443700426404986e-01  -8.3909040406650648e-01  -9.4395530902328406e-01  -9.3834745418252097e-01  -5.8799093263082347e-01  -2.3176251984887413e-02  2.9198374880407368e-02  8.4653406348016025e-01  1.2835234773207940e+00  1.4876601843107620e+00  1.4040919470330022e+00  8.5540496068476912e-01  -2.7703572599473977e-02  -8.6564547465728647e-01  -1.2870367062794363e+00  -1.4938389833709624e+00  -1.3911271544363482e+00  -7.9860249704462194e-01  2.9198374880407368e-02  1.6656795874762605e-02  9.5181283814811091e-01  1.4920734748381406e+00  1.6940061685587948e+00  1.4020345256408124e+00  9.4303179248621660e-01  -1.8694906989165736e-02  -9.4686625965242632e-01  -1.4801896873619247e+00  -1.6887909951460289e+00  -1.4508785850997268e+00  -9.2354636711811067e-01  1.6656795874762605e-02  4.8819099086058387e-02  9.3749075553272765e-01  1.4016971440591151e+00  1.4434688738554755e+00  1.3394749597992113e+00  8.4016773399977895e-01  -4.6239196640712132e-02  -8.8783980389968220e-01  -1.4019429396613414e+00  -1.4154793275350721e+00  -1.3397530535288278e+00  -9.2648180683676784e-01  4.8819099086058387e-02  6.8131850107846156e-02  5.9708431413313379e-01  7.9341031704913734e-01  9.2543434850196093e-01  9.2104938490504085e-01  4.7847097542972195e-01  -6.2814895818529087e-02  -6.0438943457946637e-01  -8.4339453767449579e-01  -9.3001179165563819e-01  -8.3960955257496095e-01  -4.7998400562979499e-01  6.8131850107846156e-02  5.9035967771310316e-02  1.9724812095452848e-02  -2.6572408325636801e-02  -1.5201780439302665e-02  -3.7715480407245844e-02  -6.2691970286558832e-02  -4.2750551940358587e-02  -1.7074471165397859e-02  2.1573411791299790e-02  1.0889694394148858e-02  4.1713938765296631e-02  7.4167953443238441e-02  5.9035967771310316e-02  1.7273697721071169e-02  1.1146473381190916e-02  -1.8516232858702745e-02  -3.4754640754542425e-02  -4.2717505979043176e-02  -5.5749737011982568e-02  -2.2669428787930629e-02  4.1411384572111630e-03  2.8690954459087606e-02  2.9582209418573095e-02  4.4605175205839030e-02  2.4589238244659698e-02  1.7273697721071169e-02  1.0305165703030321e-02  -3.1768734838068957e-01  -5.1490287372417054e-01  -6.0332435386956285e-01  -5.3694798335236216e-01  -3.1411568248620519e-01  -3.6285938148397910e-03  3.0777285308563618e-01  5.1709150598909959e-01  6.1329166288002501e-01  5.4098653265838526e-01  3.1364411078534643e-01  1.0305165703030321e-02  -2.0356143196669965e-02  -5.2184163216619650e-01  -8.3321477104702146e-01  -9.6615086731784694e-01  -8.2634207557357864e-01  -4.4535752884620444e-01  1.2575198190980543e-02  5.2107556606015581e-01  8.3268793004961583e-01  9.6142413940034233e-01  8.2168175921575448e-01  4.6228116640665551e-01  -2.0356143196669965e-02  -3.5809387674288082e-02  -6.0660828427280888e-01  -9.6421308134719819e-01  -1.0494191176349323e+00  -8.9835229646282477e-01  -5.2825749817019851e-01  3.4648988809750161e-02  6.0322792262345981e-01  9.6686774655892771e-01  1.0448141429556566e+00  9.0521841776191092e-01  5.3013041235575409e-01  -3.5809387674288082e-02  -5.2143426572827827e-02  -5.3875229651821621e-01  -8.2075639982569470e-01  -9.0454368151179110e-01  -7.8968532659714141e-01  -4.5359229001693407e-01  4.9281108471092155e-02  5.4434630910308823e-01  8.2948464405934574e-01  8.9510262934817708e-01  7.8214398016362752e-01  4.4774870469016070e-01  -5.2143426572827827e-02  -3.3472885362643666e-02  -3.1416257926387647e-01  -4.7000103205414662e-01  -5.2425691248321027e-01  -4.3986304422219630e-01  -2.0389146304231034e-01  5.4772343089186361e-02  3.0542531235745995e-01  4.4503244015227172e-01  5.2540799976081509e-01  4.5547768063137578e-01  2.1004201479371795e-01  -3.3472885362643666e-02  -2.7753691265531351e-02  1.0890867564083647e-04  2.4673925914205780e-02  3.4949775326048170e-02  5.0230402555003467e-02  3.6331599217812011e-02  2.5736139305490284e-02  6.5526375683135742e-03  -2.2995628904910588e-02  -3.5594954059558093e-02  -4.3182124407888052e-02  -5.6047860335012932e-02  -2.7753691265531351e-02  -6.6455180183349572e-03  3.0520900845627896e-01  5.1284994634129588e-01  6.1602648876895316e-01  5.4293597762551604e-01  3.1859790873979332e-01  6.7947568568208060e-03  -3.1159880065972617e-01  -5.1652049484952522e-01  -5.9342635278991851e-01  -5.4136247601868059e-01  -3.0726913789590454e-01  -6.6455180183349572e-03  2.1029830961369372e-02  5.0557464076451608e-01  8.3526077321862779e-01  9.6014791412833322e-01  8.1700670833103617e-01  4.6084036634665565e-01  -2.6838838066823027e-02  -5.2289058291168822e-01  -8.3184379758162263e-01  -9.6044794895141716e-01  -8.2307764576041209e-01  -4.4248779732375565e-01  2.1029830961369372e-02  3.7162930510744777e-02  6.0223303503821835e-01  9.6370359350871215e-01  1.0537765507487167e+00  9.0073107274938724e-01  5.2627854111112837e-01  -4.3715599189744936e-02  -6.1239818446027550e-01  -9.5940519687475156e-01  -1.0495450930325974e+00  -8.9495604597278311e-01  -5.3222463795405139e-01  3.7162930510744777e-02  4.2814249703831880e-02  5.4405602015474386e-01  8.2680380261012842e-01  8.9813741689508675e-01  7.9539854401283294e-01  4.4012580962738418e-01  -5.2353549724293146e-02  -5.3611451529408383e-01  -8.2127049890872095e-01  -9.0201256479621761e-01  -7.9080558060581940e-01  -4.5654358144119983e-01  4.2814249703831880e-02  6.1046274450761613e-02  2.9842425475929574e-01  4.4557202149172415e-01  5.2847588575865112e-01  4.5698259488808152e-01  2.1041924258644087e-01  -2.9434206073265905e-02  -3.1150380473304412e-01  -4.6603408174706107e-01  -5.2663011083834410e-01  -4.4066922509882722e-01  -2.1536371699029094e-01  6.1046274450761613e-02  1.7273697721071169e-02  1.1146473381190916e-02  -1.8516232858702745e-02  -3.4754640754542425e-02  -4.2717505979043176e-02  -5.5749737011982568e-02  -2.2669428787930629e-02  4.1411384572111630e-03  2.8690954459087606e-02  2.9582209418573095e-02  4.4605175205839030e-02  2.4589238244659698e-02  1.7273697721071169e-02  5.7147614583327620e-03  -1.7026138841734345e-02  -3.0543030236733212e-02  -3.4525142759894087e-02  -3.2222790482617870e-02  -1.8802620578271308e-02  -4.2145937890743480e-05  8.8609092371860713e-03  3.0270400538395113e-02  4.7382313352470493e-02  2.9290183302026391e-02  2.0712590402860196e-02  5.7147614583327620e-03  -1.6208830831752723e-02  -4.7107439424620486e-02  -5.8136210589342381e-02  -5.0673840091514842e-02  -3.1221559892690553e-02  -2.6145927033479096e-03  2.1748533672697513e-02  5.0000321812032067e-02  6.6856209028036323e-02  3.9677690340221852e-02  1.4215025822570530e-02  8.1485523225483369e-03  -1.6208830831752723e-02  -3.6705051025595667e-02  -6.2377409211408177e-02  -6.2087112162282999e-02  -4.2511861405441415e-02  -5.9465243127687173e-04  2.1805528025310494e-02  3.6218513510776117e-02  3.9897727538669943e-02  6.4850772174121676e-02  4.4087328384997931e-02  -9.8968223045581998e-04  -9.2348013216172215e-03  -3.6705051025595667e-02  -4.2924815474914418e-02  -4.6069870485923120e-02  -3.9877225625144959e-02  -5.3366647081552207e-03  4.1351156901223325e-02  4.8600044209220240e-02  2.6278071771629816e-02  4.2658723020769014e-02  4.2917770853417817e-02  2.4406183312640924e-03  -3.7090029065671111e-02  -4.0234111655390779e-02  -4.2924815474914418e-02  -3.2011912737132789e-02  -8.5953406911878985e-03  -3.6850918077272303e-03  3.8428482769581003e-02  7.5477740679380428e-02  5.0536109549824043e-02  3.5869142497684678e-02  3.0628705578931905e-02  -2.3191707834142226e-03  -3.5627632717941442e-02  -6.5346459524526793e-02  -6.2367794587614038e-02  -3.2011912737132789e-02  -2.3289200435416949e-02  -2.7661510711165741e-03  1.4148349452689323e-02  4.4637109237130136e-02  6.4669896200453672e-02  4.5849848814779590e-02  2.3280953952548044e-02  4.9524976318900318e-03  -2.9039072618905728e-02  -4.4892003251288407e-02  -5.7654080930744762e-02  -4.5984757700812125e-02  -2.3289200435416949e-02  1.5151768578101821e-03  2.1928621096464443e-02  3.4573220879597022e-02  4.1012602740287528e-02  3.6674673294346163e-02  1.5980785602216319e-02  4.4599718996498504e-03  -1.4399878078292046e-02  -3.3073110506902974e-02  -2.7690889478039767e-02  -2.8346309396382201e-02  -3.0580397942979714e-02  1.5151768578101821e-03  1.7590364798829822e-02  4.3471191534686079e-02  6.0867230823151708e-02  4.7588305375315103e-02  1.5289348452728392e-02  2.5253786172158162e-03  -1.2006697663549806e-02  -4.5014286716530495e-02  -5.1355535862791624e-02  -3.5458580312110209e-02  -3.2496383346772711e-02  2.5406203718071342e-04  1.7590364798829822e-02  2.5764867433261413e-02  5.1404660277619404e-02  6.4439601944785513e-02  3.5168396991657289e-02  -7.3132798363694986e-03  -1.5212221975882794e-02  -3.9820743842575730e-02  -6.5899881893921833e-02  -5.9936215286609237e-02  -4.2111678219450090e-02  3.2696932364079307e-03  2.8725458779605088e-02  2.5764867433261413e-02  2.2532694406302841e-02  4.4871312219510420e-02  4.0947894963903567e-02  -2.1652163641857299e-03  -4.0125678655933472e-02  -5.2453628282775874e-02  -4.0377078759923274e-02  -4.3831395994750326e-02  -3.5461191372270183e-02  -5.1011732338909863e-04  4.9864510594129698e-02  4.3437559819066829e-02  2.2532694406302841e-02  3.6215975907717815e-02  3.5185521283321634e-02  3.8505751431543852e-03  -3.7934992317621131e-02  -6.3356314079004772e-02  -6.4265068213095286e-02  -4.6000010927768925e-02  -9.1162493418212691e-03  -2.0422123308309879e-03  3.6542414379706310e-02  5.9700472235833003e-02  4.8807884011117596e-02  3.6215975907717815e-02  2.2593183110945703e-02  -3.0222859230005861e-03  -2.6484805179477725e-02  -3.9688133839845881e-02  -5.1742863136667747e-02  -4.7742636572637429e-02  -1.4921641239606084e-02  -1.6837653512201425e-04  2.0051202164591449e-02  3.2542778270422131e-02  6.5732279685196876e-02  4.3024430024570008e-02  2.2593183110945703e-02  5.7147614583327620e-03  -1.7026138841734345e-02  -3.0543030236733212e-02  -3.4525142759894087e-02  -3.2222790482617870e-02  -1.8802620578271308e-02  -4.2145937890743480e-05  8.8609092371860713e-03  3.0270400538395113e-02  4.7382313352470493e-02  2.9290183302026391e-02  2.0712590402860196e-02  5.7147614583327620e-03  -2.3987042029895978e-02  -5.1670934873806709e-02  -5.0142625482792538e-02  -3.5539563244589137e-02  -2.8922446192582645e-02  7.9007782259249704e-03  1.7387552829434053e-02  4.2421337788614323e-02  5.5512487208756886e-02  3.7606397115501504e-02  2.2400876546546603e-02  6.2045103246223705e-03  -2.3987042029895978e-02  -3.3688043678415193e-02  2.0950670187583886e-01  4.6023334744859218e-01  5.2738915601273861e-01  4.4822481860599006e-01  3.0036911424018559e-01  5.8090690231762658e-02  -2.1543807913651170e-01  -4.5031084226382695e-01  -5.3781876438049481e-01  -4.6590242634966872e-01  -3.1294433132894428e-01  -3.3688043678415193e-02  -4.7447329029665128e-02  4.3727304375410797e-01  7.9555722951501806e-01  8.9918928344636162e-01  8.2576669059739727e-01  5.4436782482356738e-01  4.3199951651049368e-02  -4.6162202540123920e-01  -7.9001772647453294e-01  -9.0194179585569356e-01  -8.1625107554972487e-01  -5.3625203102780927e-01  -4.7447329029665128e-02  -3.6748347094154005e-02  5.3002677713105528e-01  8.9818009988507241e-01  1.0561376682843659e+00  9.6377972704441706e-01  5.9874315094238917e-01  2.3298208804435110e-02  -5.3108975095266953e-01  -8.9249430766855042e-01  -1.0477519363062848e+00  -9.6081202394818621e-01  -6.0370278194202054e-01  -3.6748347094154005e-02  -1.4779789293918660e-02  4.6288612900329174e-01  8.2390753183762044e-01  9.6886700804963333e-01  8.2670253688928019e-01  5.0603411412809163e-01  1.9568843040211063e-02  -4.4659081791934030e-01  -8.3157850743024231e-01  -9.6574382042204876e-01  -8.3154200294159353e-01  -5.1772548897677384e-01  -1.4779789293918660e-02  1.8377101811789989e-03  3.1372019264554246e-01  5.3738948355740535e-01  6.0355725168408514e-01  5.1589506367222493e-01  3.0535865197745915e-01  2.1370389984198671e-03  -3.0494130812862952e-01  -5.5122401493258988e-01  -6.0336939371291420e-01  -5.0875402707961348e-01  -3.1762812638142762e-01  1.8377101811789989e-03  2.2692055854983337e-02  4.1643878553503010e-02  4.5620767066897966e-02  3.3701343181127517e-02  3.0056197373491161e-02  7.9410784662712491e-05  -1.6242696907748353e-02  -5.2625578606301182e-02  -2.9887745754691886e-02  -1.9882582406499687e-02  -1.2084612133426638e-02  8.6785558143830370e-04  2.2692055854983337e-02  5.6523151331153404e-02  -2.1301265351538443e-01  -4.4705580697355546e-01  -5.2964142465409603e-01  -4.6798829067076014e-01  -3.1499721860184038e-01  -3.9249584551992928e-02  2.2242257869929086e-01  4.6271804797251903e-01  5.3372380760313598e-01  4.4456773385979570e-01  2.9183989606734589e-01  5.6523151331153404e-02  4.0774394124762789e-02  -4.5528533326961124e-01  -7.8939513321402743e-01  -9.0142264873967448e-01  -8.2463913711912018e-01  -5.3863828498006106e-01  -5.2718605168803251e-02  4.5388492794897350e-01  7.9372370072222831e-01  9.0583020286564619e-01  8.2293194400661407e-01  5.4562719300347773e-01  4.0774394124762789e-02  2.5501098357698107e-02  -5.2558674121493643e-01  -9.0651854066524706e-01  -1.0470330111667352e+00  -9.6772075115587108e-01  -6.1436870303966418e-01  -3.4784266364904781e-02  5.3266749878184094e-01  9.0065375513550971e-01  1.0586984564338684e+00  9.7494876746423242e-01  6.0419758546614077e-01  2.5501098357698107e-02  1.0996765861901349e-02  -4.4953937483294149e-01  -8.2141561656927520e-01  -9.5897985847295431e-01  -8.3306149414538777e-01  -5.2408748065326538e-01  -2.489942442226482