<?xml version="1.0"?>
<VTKFile type="UnstructuredGrid"  version="0.1"  >
<UnstructuredGrid>
<Piece  NumberOfPoints="5315" NumberOfCells="10372">
<Points>
<DataArray  type="Float64"  NumberOfComponents="3"  format="ascii">-1 -1 0  1 -1 0  1 1 0  -1 1 0  0 -1 0  1 0 0  0 1 0  -1 0 0  0 0 0  -1 -0.5 0  -0.5 -1 0  -0.5 1 0  -1 0.5 0  1 -0.5 0  0.5 -1 0  1 0.5 0  0.5 1 0  0.4166666666666666 -0.4166666666666667 0  -0.4166666666666667 0.4166666666666667 0  -0.25 -0.5 0  0.5 0.25 0  -0.4861111111111112 -0.06944444444444445 0  0.0732758620689655 0.507183908045977 0  -0.625 -0.625 0  0.625 0.625 0  0.7380952380952381 -0.25 0  -0.7099116161616161 0.2105429292929293 0  -0.25 0.7380952380952381 0  0.105392156862745 -0.6348039215686275 0  0.6770833333333334 -0.6770833333333333 0  -0.6770833333333334 0.6770833333333334 0  0.3472222222222222 -0.06944444444444446 0  -0.7264957264957265 -0.3044871794871795 0  0.3141940982507127 0.7297313660835709 0  0.02049587951122483 -0.3227479397556124 0  -0.2690972222222223 0.1475694444444444 0  0.3859500089908372 -0.7274430156831472 0  -0.2228477945123298 -0.1761765495248019 0  0.2182539682539683 0.1884920634920635 0  0.75 0.375 0  -0.145442219440968 -0.7602211097204841 0  0.7088913690476191 0.0427827380952381 0  -0.75 -1 0  -1 -0.75 0  1 0.75 0  0.75 1 0  -0.7439982703698937 -0.04614153195464455 0  -0.4609235096577606 -0.3356498099556895 0  0.4063134471431929 0.4895621842856023 0  0.25 -1 0  -0.25 -1 0  -0.75 1 0  0.75 -1 0  -1 -0.25 0  -1 0.25 0  1 -0.25 0  -0.25 1 0  1 -0.75 0  -1 0.75 0  0.25 1 0  1 0.25 0  -0.4041423272138783 -0.7597141090712928 0  0.06500839607911253 0.7578103030529481 0  -0.1572801182352047 0.3838997021864289 0  -0.6528005242053915 0.4409494757946086 0  -0.4930160984848485 0.1544744318181818 0  -0.4732142857142858 0.7752976190476191 0  0.6398809523809523 -0.4538690476190476 0  0.5166054117396399 -0.2161233620965164 0  -0.002273787244753427 0.2232363985975174 0  0.1500564496765022 -0.1524955293952667 0  0.2016720420046758 -0.4410343282803009 0  -0.08495178036419618 0.6274139771124571 0  -0.8367311471133162 0.3642591720794645 0  -0.8333333333333334 -0.625 0  -0.594323836800685 -0.8231079456002283 0  -0.4466957714776065 -0.5349126855671806 0  0.8125 0.5625 0  0.78125 0.78125 0  0.5091392650016769 0.7947130883338923 0  0.125 -0.8382681931833136 0  -0.8184523809523809 -0.8184523809523809 0  -0.07781530426104531 -0.5819319697006881 0  0.5085055196703295 0.04967610411902112 0  0.2918471072074933 -0.276017202318847 0  0.5120763537765269 -0.5898771553229597 0  0.625 -0.8585349462365591 0  0.8158532234335381 -0.8158532234335381 0  -0.5198088446315396 0.5739411553684605 0  -0.8585349462365591 0.625 0  -0.8150493805516597 0.8156205699829586 0  0.8585349462365591 -0.625 0  -0.2688268348649726 0.5439331383603209 0  0.8242100426758139 -0.4436043596336612 0  0.5833756314287952 0.4479378157143976 0  0.8690476190476191 -0.125 0  -0.125 0.8690476190476191 0  -0.8692745600729823 0.125 0  0.8696725120759167 0.125 0  -0.625 0.8711516477451908 0  0.2339522463269718 0.3879558377955778 0  0.2453709502295031 0.5655822922838026 0  0.1730610651637797 0.02021709580868947 0  0.3245402594056757 -0.5644672020485209 0  -0.7291666666666666 -0.4816595441595442 0  -1 -0.375 0  -0.5811140848639904 -0.2127276307675001 0  0.673332592838314 0.2158348143233718 0  0.375 1 0  -0.5714768890989919 0.2985103444040069 0  -1 -0.125 0  -0.8453692574786325 -0.1875 0  -0.3144549134065865 -0.02408675326008025 0  -0.2898414972096258 -0.3336092734780093 0  -0.1075052092206287 -0.4224330421314983 0  -0.05043970703604117 -0.1652278959397459 0  0.6459672950297897 -0.1113415301525317 0  0.4645210271029513 0.6398480556579343 0  0.3512863754411909 0.0937979496253573 0  -0.6063160985568274 0.03891469652249891 0  -0.3428819444444445 0.8690476190476191 0  0.625 1 0  -0.1602164796159982 0.02697860906625157 0  0.04648110064133829 -0.4808416424239687 0  1 0.875 0  -0.3836102479201657 0.6484936449177356 0  -0.3776011723096096 0.263078478984336 0  -0.6024978259969829 -0.3949628096211138 0  0.125 1 0  0.2010781308272777 0.8456221018461906 0  0.2822509696388829 -0.845902544691141 0  -0.3285533674953515 -0.6289773550938936 0  0.3461306793221754 0.278777492464833 0  0.4737475672408696 -0.8508448959534423 0  0.2384632828836344 -0.7029523187242811 0  -0.004777287059791593 0.3759269695907358 0  -0.8499735021850066 -0.3912320205328522 0  0.1222536293721587 0.2963971539625205 0  -0.3769456520999688 -0.203572526805711 0  -0.2749617205755651 -0.8464290792698902 0  0.004805888512766143 -0.747174355248311 0  -0.125 -1 0  -0.06001061822252458 -0.8724007765244854 0  0.875 0.4375 0  0.854421179608893 0.271342359217786 0  0.875 1 0  -0.1499861095763589 0.2358309656934888 0  0.3381943639137225 0.8663061796405532 0  -0.7853090110442228 0.4998412775277108 0  0.7398165998560814 -0.5535192694951373 0  0.1580042122341573 -0.3100246140259917 0  -0.7291666666666667 -0.7142857142857142 0  -0.375 -1 0  0.6483368386154684 0.8514905990110488 0  -0.1295370103291928 -0.2826118305021242 0  0.07458201853700455 0.1123894386563915 0  0.6146465857036327 -0.3161203659316075 0  0.5551898493894731 -0.740296118159085 0  0.375 -1 0  0.482702798370208 -0.084133350091034 0  0.87890625 0.68359375 0  -0.05917195534525846 0.4971092425697621 0  0.1260710309213975 0.6343750312956699 0  0.8690476190476191 -0.3077066815262848 0  -0.2912010232560567 0.3668168386732139 0  -0.875 1 0  -1 0.875 0  1 -0.875 0  0.875 -1 0  -0.8689564281364567 -0.006189266075306407 0  -0.7449425635110547 0.08458938160051771 0  -0.7150266761936593 -0.1739444581417552 0  -0.5260034831318311 -0.711099823962112 0  -0.4724626808827322 -0.871722230709409 0  0.4734436795977052 0.377714794132168 0  -0.875 -1 0  -1 -0.875 0  0.6927189078571988 0.5156567235715964 0  -0.3742497615796874 -0.4296005251260107 0  -0.1969436423297711 -0.6387157229772615 0  -0.6179496409766825 -0.08933356056510935 0  -0.424405057115988 0.04452428810878029 0  -0.08479048335844169 0.1279607007132633 0  0.003830300099055113 0.8712085230656206 0  0.8748778838820267 -1.379218479898026e-05 0  -0.375 1 0  -0.625 1 0  1 0.125 0  -0.125 1 0  1 -0.375 0  1 -0.125 0  1 -0.625 0  0.625 -1 0  0.125 -1 0  -0.625 -1 0  -1 -0.625 0  -1 0.125 0  -1 0.375 0  -1 0.625 0  1 0.375 0  1 0.625 0  0.6325660748712082 0.3335187599557389 0  -0.06420945895056573 0.7549874027425891 0  -0.8769015540914771 0.2478802253893416 0  0.871875 0.871875 0  -0.6868091492840067 0.3270978624973681 0  -0.5363597469565949 0.412994850055505 0  -0.6803734992638302 0.5574295000651103 0  -0.7076253581162534 -0.8803439094224437 0  -0.8778089002295137 -0.5106896447504627 0  -0.3860184984222981 0.530566778071246 0  0.6109900617121508 0.1128453077697081 0  0.3896945134930274 -0.1915382873255086 0  0.7605656944697778 -0.06822134873122943 0  0.3576151269893478 0.5948388411612135 0  -0.5689902680792265 -0.5143596830118065 0  0.6262446286847614 -0.5735657901943212 0  0.2030558252325225 -0.5625263842513452 0  0.6123273142928579 0.7407533260723429 0  0.4016460890123554 -0.3042863223111857 0  -0.59039693199147 0.7578418819188018 0  0.7276932493917544 -0.3705808024528924 0  0.5222536818742854 -0.4713886230400014 0  -0.5101986527137737 0.8848365765607674 0  0.510560172809238 0.5356013299918891 0  -0.3603569195756083 0.75823710606415 0  0.1967279277813232 0.728226870058472 0  -0.6086880986371127 0.1545624071548516 0  -0.38105366729386 0.1511189987807864 0  -0.2944659463671584 -0.7359061804869591 0  0.5060729154966499 -0.3475227845833823 0  -0.09281616240412746 -0.06197858250969457 0  0.7649739583333334 0.6673177083333334 0  0.7628906249999999 0.890234375 0  -0.2666864184909611 0.2585504071132311 0  0.3635064892129658 0.3878003602709461 0  -0.2339409722222222 0.8901937905844155 0  -0.1718792125974916 -0.8957733325456778 0  0.1001768566329531 0.4023510017391879 0  0.3120260172693757 -0.4540546875576884 0  0.7804062804433681 0.1896628610854537 0  0.4087715451998049 0.187961780041608 0  -0.1584963477271457 0.5451611892421655 0  -0.8926817849258324 0.463022006336401 0  0.2338091473445219 -0.07576267331277289 0  0.08171112182813692 -0.2349087687359925 0  0.04635385178956847 -0.1044635073718474 0  -0.4377391632114205 -0.6448874471423088 0  -0.1907678351227189 0.6480215912813945 0  0.300605946475244 0.4741444604171038 0  -0.2145033720757486 -0.06751709909419711 0  0.6069191921170397 -0.005492331448357812 0  0.0214718770761248 0.6032397936031719 0  0.5476675683364878 0.8992752415326501 0  0.4387475014316537 0.9093708953002239 0  -0.4932997685306436 -0.4381009159993523 0  0.2515197695339056 -0.1791673369138964 0  -0.7291666666666667 -0.6088789682539681 0  -0.9166666666666667 -0.6875 0  0.620579540363709 -0.2122431523583302 0  -0.484950136419973 0.6719440339397442 0  0.2857044415400258 0.0137589173127316 0  -0.8945708364098356 -0.288306105327986 0  0.4043102720140535 0.7842914560451557 0  0.04123256238752064 -0.9026968245801402 0  0.2003676884403109 -0.9091888601740487 0  0.1068775558538842 -0.7373377130403223 0  -0.4804566783514427 -0.1763307203045643 0  0.108286342087769 -0.3993789328997278 0  -0.191883080105361 -0.3640821726430649 0  -0.07025064492006244 0.2984876656890053 0  -0.7039324641409584 0.788312126296613 0  -0.7311286585775438 0.8932502354831682 0  0.5171409396884947 0.1503852691889257 0  0.4229392823658633 -0.003216522184234835 0  -0.5621736087218259 -0.919558629836806 0  -0.626474064879544 -0.7266572613636506 0  0.2446828746617422 0.2867616783302419 0  0.1759429608742923 0.4776611759306416 0  -0.3468240303741654 -0.5260416435617549 0  -0.7465808808425306 0.4069574477998361 0  -0.7819962170660292 0.2802441065650652 0  -0.3742623214119594 -0.8547800509641984 0  0.1014498009713561 0.8506721983266377 0  0.4285217620918213 -0.5230190595570253 0  0.4091738370487775 -0.6256346204225141 0  0.78125 0.46875 0  0.90625 0.53125 0  -0.4791801348852565 0.2553992655702126 0  0.7843318610782772 -0.7086046956885941 0  0.8909728264971901 -0.7355183796514634 0  0.7041908166528879 -0.7830649143180282 0  0.731182135
[...]
<PointData  Scalars="f_23"> 
<DataArray  type="Float64"  Name="f_23"  format="ascii">1.0126964127543998e+00  1.0126964127543998e+00  1.0126964127543998e+00  1.0126964127543998e+00  1.0126919150758187e+00  1.0126905293511992e+00  1.0126919150758187e+00  1.0126905293511992e+00  1.0126915542472887e+00  1.0171160496886349e+00  1.0171173863004808e+00  1.0171173863004808e+00  1.0171143824128526e+00  1.0171160496886349e+00  1.0171159285852207e+00  1.0171143824128526e+00  1.0171159285852207e+00  1.0209479770335597e+00  1.0209510128657775e+00  1.0193268468315235e+00  1.0193290207538377e+00  1.0173153178554195e+00  1.0173450851945194e+00  1.0202445759521654e+00  1.0202461601635489e+00  1.0172808841062955e+00  1.0171247195459381e+00  1.0172803162117896e+00  1.0168361769871912e+00  1.0190753322428812e+00  1.0190740229703368e+00  1.0163806663422832e+00  1.0181831027918249e+00  1.0182644161151324e+00  1.0158951965719241e+00  1.0160515136811612e+00  1.0190958933845760e+00  1.0157510571626147e+00  1.0158441607995470e+00  1.0186761340003356e+00  1.0156241332646192e+00  1.0155456709470814e+00  1.0149029620087282e+00  1.0149049325531929e+00  1.0149057142171709e+00  1.0149045039772633e+00  1.0150743654890986e+00  1.0203940583899576e+00  1.0211630491908250e+00  1.0149056075366523e+00  1.0149046182836492e+00  1.0149029620087282e+00  1.0149045039772633e+00  1.0149037294425824e+00  1.0149051138884357e+00  1.0149037294425824e+00  1.0149046182836492e+00  1.0149049325531929e+00  1.0149057142171709e+00  1.0149056075366523e+00  1.0149051138884357e+00  1.0188054450197728e+00  1.0149776054583111e+00  1.0175478915334812e+00  1.0204482863431972e+00  1.0180744598253775e+00  1.0189484805948419e+00  1.0206496764533921e+00  1.0188489436972872e+00  1.0145304721683743e+00  1.0145449004815585e+00  1.0185151100720486e+00  1.0167542344518228e+00  1.0174244105569388e+00  1.0175733420139352e+00  1.0179751059017823e+00  1.0213600197317194e+00  1.0183133486125093e+00  1.0162525050036852e+00  1.0187121635915657e+00  1.0143867993179532e+00  1.0152707981507207e+00  1.0170865827898012e+00  1.0172168091961229e+00  1.0180510073718414e+00  1.0211904099915337e+00  1.0172882696485555e+00  1.0153332236795047e+00  1.0212888987788440e+00  1.0172845694334947e+00  1.0153490874205404e+00  1.0172868833973951e+00  1.0195068539712369e+00  1.0181962068502040e+00  1.0211262354917827e+00  1.0140445383881038e+00  1.0140475229659629e+00  1.0140452065434280e+00  1.0140432324194213e+00  1.0171549920079961e+00  1.0185800848419455e+00  1.0190759897192767e+00  1.0138938207756178e+00  1.0201492184718979e+00  1.0195985181818652e+00  1.0164685265338442e+00  1.0185354056279146e+00  1.0176697201080056e+00  1.0164681951559695e+00  1.0197722315138094e+00  1.0133399772946095e+00  1.0150206595966560e+00  1.0157987451753716e+00  1.0187723331364000e+00  1.0173441003799324e+00  1.0138848645659355e+00  1.0167678224407546e+00  1.0206880552949862e+00  1.0165904034296629e+00  1.0167026094125797e+00  1.0168288636016682e+00  1.0164650191315876e+00  1.0137497500036963e+00  1.0171926291210680e+00  1.0133394734970380e+00  1.0200750357826485e+00  1.0188862638217031e+00  1.0206304445623071e+00  1.0133409221032177e+00  1.0151965394510094e+00  1.0163092628011838e+00  1.0196873663258970e+00  1.0187718147258693e+00  1.0179859236811302e+00  1.0175994558535799e+00  1.0164763512777033e+00  1.0175318046539275e+00  1.0161607206392704e+00  1.0180610032767352e+00  1.0162019534657685e+00  1.0149456680649906e+00  1.0133380721243277e+00  1.0135183747691672e+00  1.0175925078566479e+00  1.0160630897805554e+00  1.0133388616787180e+00  1.0156201893287031e+00  1.0168013269395988e+00  1.0188406773485437e+00  1.0193464487720556e+00  1.0167202538765299e+00  1.0178965917752043e+00  1.0164684355952884e+00  1.0171146867114269e+00  1.0160478644609772e+00  1.0134630858615348e+00  1.0196737184977489e+00  1.0193331610676768e+00  1.0164681951559695e+00  1.0174010439164705e+00  1.0164109480731878e+00  1.0172621401217394e+00  1.0170333676899102e+00  1.0163974267245397e+00  1.0191622390735879e+00  1.0133374295511453e+00  1.0133394734970380e+00  1.0133362902648284e+00  1.0133388616787180e+00  1.0134007715121809e+00  1.0152771188682312e+00  1.0165793694443830e+00  1.0198315320919324e+00  1.0177644674214601e+00  1.0208888916489731e+00  1.0133374295511453e+00  1.0133362902648284e+00  1.0200987861968895e+00  1.0206708136124887e+00  1.0178138840873101e+00  1.0168715625731584e+00  1.0169527200630264e+00  1.0136754784313915e+00  1.0133768919036459e+00  1.0133400284163776e+00  1.0164684355952884e+00  1.0164660637670004e+00  1.0133460708147768e+00  1.0133380721243277e+00  1.0164685265338442e+00  1.0133399772946095e+00  1.0164698202497389e+00  1.0164650191315876e+00  1.0133409221032177e+00  1.0164660637670004e+00  1.0164698202497389e+00  1.0133460708147768e+00  1.0164682713431687e+00  1.0164658608887240e+00  1.0164682713431687e+00  1.0164658608887240e+00  1.0197114697554981e+00  1.0150142912456488e+00  1.0155031027667123e+00  1.0140492034548951e+00  1.0190021848533484e+00  1.0211594577787710e+00  1.0201223112290752e+00  1.0160813188405931e+00  1.0177315521695001e+00  1.0209539084586663e+00  1.0171321280621302e+00  1.0180231706419516e+00  1.0149569808014061e+00  1.0203313474317302e+00  1.0213251043510698e+00  1.0206471224983014e+00  1.0185172264268529e+00  1.0189278764685574e+00  1.0196603361848509e+00  1.0188718648727821e+00  1.0189436448870253e+00  1.0214878868121702e+00  1.0176650345060221e+00  1.0214789767289258e+00  1.0184155354661812e+00  1.0166901055987452e+00  1.0175840397273548e+00  1.0174499231411447e+00  1.0179214175125313e+00  1.0205995282723099e+00  1.0132233064960270e+00  1.0180043330238582e+00  1.0152313540476159e+00  1.0174656260066959e+00  1.0202513382629526e+00  1.0151865170140517e+00  1.0143150315029514e+00  1.0171394039585868e+00  1.0200757320495653e+00  1.0158755196282030e+00  1.0181340145701434e+00  1.0180356917664455e+00  1.0175412964512971e+00  1.0149247419254233e+00  1.0149798202801172e+00  1.0132419353563538e+00  1.0205183696268862e+00  1.0176340603470817e+00  1.0199899905241514e+00  1.0146093968912397e+00  1.0166347304483789e+00  1.0166851800233436e+00  1.0174447435150871e+00  1.0173038301825721e+00  1.0213766283606711e+00  1.0161854670485790e+00  1.0191186036260644e+00  1.0160468341332012e+00  1.0182015612740472e+00  1.0203587913502901e+00  1.0154028257547922e+00  1.0158975159888917e+00  1.0184652522391278e+00  1.0131644494422170e+00  1.0145759964112573e+00  1.0155611763476038e+00  1.0183228377041931e+00  1.0171827745788093e+00  1.0177772796726181e+00  1.0157788073164222e+00  1.0172199218043512e+00  1.0156447107499020e+00  1.0180192120936356e+00  1.0168634879663252e+00  1.0172291971318967e+00  1.0189868187864501e+00  1.0175475929068467e+00  1.0183158182245127e+00  1.0205597140533416e+00  1.0190057610392871e+00  1.0170915174902386e+00  1.0173171838789044e+00  1.0140305752398402e+00  1.0212964557315016e+00  1.0205351048391407e+00  1.0188539866924140e+00  1.0174490861574335e+00  1.0193821773742677e+00  1.0172104751935489e+00  1.0156024166024953e+00  1.0172872161327555e+00  1.0156648665790551e+00  1.0143423869979784e+00  1.0157832187338751e+00  1.0172164092357872e+00  1.0189920609374488e+00  1.0145328860827916e+00  1.0136948004572246e+00  1.0147826374150157e+00  1.0164921854411966e+00  1.0141866213149939e+00  1.0136583974190003e+00  1.0189382057291567e+00  1.0203329080140346e+00  1.0177006567054012e+00  1.0160366810854262e+00  1.0168738430386242e+00  1.0181258061675018e+00  1.0187019842189016e+00  1.0170529037420348e+00  1.0148103983701047e+00  1.0169934598416213e+00  1.0202908020319252e+00  1.0172518914269735e+00  1.0171603343005715e+00  1.0175501944517720e+00  1.0170243644936228e+00  1.0151656849781650e+00  1.0209498854308938e+00  1.0215024801672798e+00  1.0211444804408589e+00  1.0183444537204003e+00  1.0175799897401767e+00  1.0161567618422935e+00  1.0192754217447775e+00  1.0150545279347076e+00  1.0155534899210095e+00  1.0200614369954910e+00  1.0145435092329391e+00  1.0193290278453284e+00  1.0194801402442681e+00  1.0159527288996604e+00  1.0155488248238309e+00  1.0142333848830358e+00  1.0148051205760946e+00  1.0171412552639374e+00  1.0171203417008723e+00  1.0201102133530928e+00  1.0210438747268080e+00  1.0202215735431579e+00  1.0130466028442906e+00  1.0154629623068421e+00  1.0130491637951202e+00  1.0143507040454998e+00  1.0142421201869583e+00  1.0165466724831678e+00  1.0159472497224886e+00  1.0199028823236165e+00  1.0171367842067565e+00  1.0159351021656968e+00  1.0142390870746980e+00  1.0189359208803532e+00  1.0135432802178785e+00  1.0171199768619299e+00  1.0187474743614227e+00  1.0186548803626800e+00  1.0203479077733286e+00  1.0142280748848735e+00  1.0159181059963986e+00  1.0130277361877909e+00  1.0130573783433499e+00  1.0130656040518278e+00  1.0130303504648170e+00  1.0132476539735396e+00  1.0130625215281612e+00  1.0161856854826983e+00  1.0185230789861650e+00  1.0175747261941654e+00  1.0159161596322719e+00  1.0159225278702382e+00  1.0197408290213372e+00  1.0198197618650913e+00  1.0156867198780801e+00  1.0130266477643490e+00  1.0141812755516417e+00  1.0173802974017723e+00  1.0179747365782335e+00  1.0149229297068485e+00  1.0142846324503640e+00  1.0205542176028231e+00  1.0147615427709107e+00  1.0142410286188752e+00  1.0194702831255811e+00  1.0195733044261530e+00  1.0199073068737903e+00  1.0169984070378728e+00  1.0208056719467085e+00  1.0174409529595227e+00  1.0159620620403536e+00  1.0160667703592359e+00  1.0186959153149435e+00  1.0165828638006029e+00  1.0174543390251296e+00  1.0192250171945465e+00  1.0173564743518151e+00  1.0170531320189067e+00  1.0145961017752854e+00  1.0177811950821374e+00  1.0168726416576819e+00  1.0176960513951223e+00  1.0158550287867183e+00  1.0162496062726110e+00  1.0154999511587368e+00  1.0202544223174503e+00  1.0178168244492685e+00  1.0202835275390585e+00  1.0172057662055085e+00  1.0167685289809292e+00  1.0162754003003720e+00  1.0178179206874289e+00  1.0187486455293338e+00  1.0186048313998786e+00  1.0203789716300764e+00  1.0207269873306566e+00  1.0176864280544176e+00  1.0169440074118266e+00  1.0130077015936718e+00  1.0129908142953643e+00  1.0183468072924966e+00  1.0214543910232345e+00  1.0167016604200305e+00  1.0160515960413334e+00  1.0174101942066940e+00  1.0186098306128923e+00  1.0178214075407246e+00  1.0199991878178383e+00  1.0209282184302555e+00  1.0211870185681073e+00  1.0169467695603960e+00  1.0166445863732203e+00  1.0157537787720257e+00  1.0169861975778591e+00  1.0143115643806884e+00  1.0138609547439992e+00  1.0135713969199174e+00  1.0179745431185794e+00  1.0170186705956783e+00  1.0199100948479436e+00  1.0169655730575939e+00  1.0182537465559911e+00  1.0140448267685227e+00  1.0177202609936586e+00  1.0169082801553728e+00  1.0152106620695733e+00  1.0189248910661124e+00  1.0174723855590675e+00  1.0140444928485339e+00  1.0192968197237160e+00  1.0190129300801178e+00  1.0163494652342258e+00  1.0209659255451826e+00  1.0162518850858806e+00  1.0138260979392952e+00  1.0152639456935815e+00  1.0182828645465822e+00  1.0172645932656856e+00  1.0128617055732609e+00  1.0174759489125758e+00  1.0140564471566249e+00  1.0201055444457061e+00  1.0198817120520969e+00  1.0165925871871910e+00  1.0195168845264335e+00  1.0143441900871535e+00  1.0164212389829617e+00  1.0180119496220801e+00  1.0170174597008910e+00  1.0156434309144069e+00  1.0157498119704143e+00  1.0162920621513252e+00  1.0186740917603434e+00  1.0128627624730040e+00  1.0195291090522665e+00  1.0184641855240208e+00  1.0178672483048907e+00  1.0195925342577958e+00  1.0195100770787389e+00  1.0149760004225681e+00  1.0169104306125012e+00  1.0157491758052231e+00  1.0180253102422059e+00  1.0164943531420392e+00  1.0183940623762449e+00  1.0170541444912946e+00  1.0157460474259905e+00  1.0207151174601479e+00  1.0168476795470534e+00  1.0168834784693521e+00  1.0165678375117742e+00  1.0156895174191158e+00  1.0148010724874867e+00  1.0157470801087520e+00  1.0149789388742416e+00  1.0170952657858274e+00  1.0194269552819324e+00  1.0179533454387568e+00  1.0190983552357202e+00  1.0212108974978076e+00  1.0160825404123426e+00  1.0131075297637446e+00  1.0157491758052231e+00  1.0169658398154851e+00  1.0140622799965457e+00  1.0151382025812627e+00  1.0197422524578503e+00  1.0182665005545473e+00  1.0190982001935895e+00  1.0168315627288245e+00  1.0169620060031372e+00  1.0139790732721208e+00  1.0173806252065587e+00  1.0160684956098800e+00  1.0176645069653929e+00  1.0174360835341563e+00  1.0170556427550037e+00  1.0169475708880940e+00  1.0163117419949732e+00  1.0170195469703531e+00  1.0133869899074666e+00  1.0185126434680061e+00  1.0175004766242060e+00  1.0174924444980333e+00  1.0173360727412464e+00  1.0181918817589402e+00  1.0149013351693310e+00  1.0166936821979027e+00  1.0202295458286588e+00  1.0144478397785710e+00  1.0129084916323035e+00  1.0136558946310241e+00  1.0169480758996072e+00  1.0200241486612327e+00  1.0192731077557711e+00  1.0184432659469036e+00  1.0187855825418952e+00  1.0172426767864744e+00  1.0180973966499312e+00  1.0167989080784017e+00  1.0128627624730040e+00  1.0128665490792463e+00  1.0177062661000762e+00  1.0153428488574532e+00  1.0162280177926193e+00  1.0174652462908356e+00  1.0174265462323735e+00  1.0166392162627720e+00  1.0162430577891883e+00  1.0153492039026559e+00  1.0166658950181668e+00  1.0176961493779082e+00  1.0163312638586430e+00  1.0158937045926508e+00  1.0160371379144963e+00  1.0160100846380911e+00  1.0184196747887220e+00  1.0174094235777786e+00  1.0165577602553382e+00  1.0191536685259841e+00  1.0177529430522552e+00  1.0187622845049997e+00  1.0197325844847589e+00  1.0206813465405111e+00  1.0190700564732156e+00  1.0157470801087520e+00  1.0198217852349811e+00  1.0172504687805817e+00  1.0140562427575310e+00  1.0207480386021157e+00  1.0140763059036184e+00  1.0165854229354212e+00  1.0154090412847161e+00  1.0128881080000114e+00  1.0139902694449041e+00  1.0143609044338548e+00  1.0180578573335750e+00  1.0164504151854417e+00  1.0175683551875339e+00  1.0141655471568702e+00  1.0144825823493702e+00  1.0155095460041064e+00  1.0154439239095290e+00  1.0205680835550059e+00  1.0170740582446309e+00  1.0189620512346900e+00  1.0173183555960419e+00  1.0169490521990496e+00  1.0151324259626664e+00  1.0161172169658306e+00  1.0196621116878744e+00  1.0153117657789956e+00  1.0170336694328526e+00  1.0148471453410095e+00  1.0197574029733563e+00  1.0160176512038690e+00  1.0180517295736347e+00  1.0189912651835236e+00  1.0143425157336134e+00  1.0202350970447720e+00  1.0173019906583467e+00  1.0178779970396310e+00  1.0183946985372787e+00  1.0193491887331734e+00  1.0135854280249661e+00  1.0140571846735114e+00  1.0161289941442608e+00  1.0171591733379706e+00  1.0188816530756386e+00  1.0201595558540799e+00  1.0210282284970638e+00  1.0210000897237135e+00  1.0137801277813356e+00  1.0140564471566249e+00  1.0191993450688437e+00  1.0187316753279723e+00  1.0168021173151882e+00  1.0169063074336295e+00  1.0174575747308847e+00  1.0163898195662437e+00  1.0163799482126463e+00  1.0177873036578016e+00  1.0168639496112890e+00  1.0176615600187118e+00  1.0201568714936178e+00  1.0206963579913995e+00  1.0128605027261275e+00  1.0140588450514936e+00  1.0150682068401411e+00  1.0157493671259428e+00  1.0192182045833043e+00  1.0158736136709130e+00  1.0209420328858716e+00  1.0212988236663385e+00  1.0198644539699688e+00  1.0186193272076614e+00  1.0164114060149243e+00  1.0169463945397748e+00  1.0152292739272935e+00  1.0153395998843058e+00  1.0159616479620655e+00  1.0186906068414323e+00  1.0195248533976793e+00  1.0146031637391359e+00  1.0136201426256923e+00  1.0156331682402979e+00  1.0189063324495393e+00  1.0201994812072741e+00  1.0169149855051354e+00  1.0170672018867557e+00  1.0188555623673832e+00  1.0135329902997003e+00  1.0128638612219822e+00  1.0174529791406730e+00  1.0166678575906738e+00  1.0128821756278164e+00  1.0128948834255860e+00  1.0136497958109862e+00  1.0150715445956540e+00  1.0169452675324502e+00  1.0157489978585468e+00  1.0140548393000859e+00  1.0157489122942185e+00  1.0157498119704143e+00  1.0128616333061964e+00  1.0128617055732609e+00  1.0128605027261275e+00  1.0157514613225533e+00  1.0140588450514936e+00  1.0169467695603960e+00  1.0140548393000859e+00  1.0157514613225533e+00  1.0169480407581570e+00  1.0157460474259905e+00  1.0128593415667029e+00  1.0128556168772360e+00  1.0140537571299231e+00  1.0140571846735114e+00  1.0128593415667029e+00  1.0128556168772360e+00  1.0128609818748542e+00  1.0169480758996072e+00  1.0157489122942185e+00  1.0169463945397748e+00  1.0169490521990496e+00  1.0140581026735962e+00  1.0140581026735962e+00  1.0140530971390067e+00  1.0169440074118266e+00  1.0140577833341127e+00  1.0157489978585468e+00  1.0169480407581570e+00  1.0140530971390067e+00  1.0128616333061964e+00  1.0128665490792463e+00  1.0140537571299231e+00  1.0140577833341127e+00  1.0169452675324502e+00  1.0128609818748542e+00  1.0169475708880940e+00  1.0157493671259428e+00  1.0214908191173913e+00  1.0211751117361212e+00  1.0137996179029167e+00  1.0191747367863135e+00  1.0182225560364830e+00  1.0205781141391781e+00  1.0183887966360539e+00  1.0212607434962819e+00  1.0214272353545784e+00  1.0208787473396739e+00  1.0182747681422475e+00  1.0162565467623628e+00  1.0172256103419433e+00  1.0193381915471085e+00  1.0196857373811343e+00  1.0147118187123623e+00  1.0166024249069414e+00  1.0149824451286544e+00  1.0135383510293607e+00  1.0131878110226846e+00  1.0177216249590693e+00  1.0177105964907183e+00  1.0146006336237294e+00  1.0150501228178404e+00  1.0209908555195146e+00  1.0135958638357938e+00  1.0135578842460273e+00  1.0158642832079696e+00  1.0193804646548812e+00  1.0138291826852692e+00  1.0173540624655315e+00  1.0188152995137232e+00  1.0178110458807765e+00  1.0156190045509137e+00  1.0201848813951266e+00  1.0149747860593490e+00  1.0194213276308299e+00  1.0187133938233019e+00  1.0183939588206172e+00  1.0170366850527206e+00  1.0200912003646259e+00  1.0168414713574636e+00  1.0168496255417758e+00  1.0211216790841195e+00  1.0164063157143521e+00  1.0171617405467706e+00  1.0173437795748157e+00  1.0178373583853775e+00  1.0171659772416168e+00  1.0174044025952331e+00  1.0164121568745039e+00  1.0134659829430974e+00  1.0213111719975989e+00  1.0205707345424635e+00  1.0209623266685786e+00  1.0195055236786543e+00  1.0204678677638186e+00  1.0149759907679268e+00  1.0166199796971918e+00  1.0169500085512315e+00  1.0194255184899959e+00  1.0144419814937742e+00  1.0144651948265719e+00  1.0215045327115269e+00  1.0214179565569121e+00  1.0167114166375941e+00  1.0141317564190686e+00  1.0182805614713444e+00  1.0178587561341328e+00  1.0195469215398876e+00  1.0198678652746425e+00  1.0180067694227193e+00  1.0193971252035614e+00  1.0183335871965860e+00  1.0163099561552860e+00  1.0159669940564344e+00  1.0188698400218088e+00  1.0181160697553544e+00  1.0164519451217993e+00  1.0203175297449070e+00  1.0212001414500738e+00  1.0162745889738500e+00  1.0154649638986115e+00  1.0152261389020307e+00  1.0139240584052411e+00  1.0140489415739076e+00  1.0157285511296201e+00  1.0155346063969197e+00  1.0199111017687146e+00  1.0174243221084742e+00  1.0169876152417281e+00  1.0198179183510641e+00  1.0183252875714428e+00  1.0194622394208068e+00  1.0190827130286182e+00  1.0169914739269312e+00  1.0160470553924612e+00  1.0165111293647513e+00  1.0159080055058445e+00  1.0197929029247927e+00  1.0177944118940623e+00  1.0147528785857289e+00  1.0169595229875281e+00  1.0130292633866826e+00  1.0203345677954363e+00  1.0160989109194185e+00  1.0196675848317005e+00  1.0205417156948184e+00  1.0167378962735003e+00  1.0155250582855622e+00  1.0164808778784455e+00  1.0180188218198647e+00  1.0172247657497653e+00  1.0176594760014208e+00  1.0131565600571697e+00  1.0207125078673960e+00  1.0200432154832404e+00  1.0211667264369404e+00  1.0155337700223512e+00  1.0166914621314740e+00  1.0211877600645509e+00  1.0162071366939927e+00  1.0185258335418195e+00  1.0150955882543313e+00  1.0173673812149220e+00  1.0180113220168650e+00  1.0165831914751084e+00  1.0160240635470921e+00  1.0170254832020487e+00  1.0214455028826326e