<?xml version="1.0"?>
<VTKFile type="UnstructuredGrid"  version="0.1"  >
<UnstructuredGrid>
<Piece  NumberOfPoints="5315" NumberOfCells="10372">
<Points>
<DataArray  type="Float64"  NumberOfComponents="3"  format="ascii">-1 -1 0  1 -1 0  1 1 0  -1 1 0  0 -1 0  1 0 0  0 1 0  -1 0 0  0 0 0  -1 -0.5 0  -0.5 -1 0  -0.5 1 0  -1 0.5 0  1 -0.5 0  0.5 -1 0  1 0.5 0  0.5 1 0  0.4166666666666666 -0.4166666666666667 0  -0.4166666666666667 0.4166666666666667 0  -0.25 -0.5 0  0.5 0.25 0  -0.4861111111111112 -0.06944444444444445 0  0.0732758620689655 0.507183908045977 0  -0.625 -0.625 0  0.625 0.625 0  0.7380952380952381 -0.25 0  -0.7099116161616161 0.2105429292929293 0  -0.25 0.7380952380952381 0  0.105392156862745 -0.6348039215686275 0  0.6770833333333334 -0.6770833333333333 0  -0.6770833333333334 0.6770833333333334 0  0.3472222222222222 -0.06944444444444446 0  -0.7264957264957265 -0.3044871794871795 0  0.3141940982507127 0.7297313660835709 0  0.02049587951122483 -0.3227479397556124 0  -0.2690972222222223 0.1475694444444444 0  0.3859500089908372 -0.7274430156831472 0  -0.2228477945123298 -0.1761765495248019 0  0.2182539682539683 0.1884920634920635 0  0.75 0.375 0  -0.145442219440968 -0.7602211097204841 0  0.7088913690476191 0.0427827380952381 0  -0.75 -1 0  -1 -0.75 0  1 0.75 0  0.75 1 0  -0.7439982703698937 -0.04614153195464455 0  -0.4609235096577606 -0.3356498099556895 0  0.4063134471431929 0.4895621842856023 0  0.25 -1 0  -0.25 -1 0  -0.75 1 0  0.75 -1 0  -1 -0.25 0  -1 0.25 0  1 -0.25 0  -0.25 1 0  1 -0.75 0  -1 0.75 0  0.25 1 0  1 0.25 0  -0.4041423272138783 -0.7597141090712928 0  0.06500839607911253 0.7578103030529481 0  -0.1572801182352047 0.3838997021864289 0  -0.6528005242053915 0.4409494757946086 0  -0.4930160984848485 0.1544744318181818 0  -0.4732142857142858 0.7752976190476191 0  0.6398809523809523 -0.4538690476190476 0  0.5166054117396399 -0.2161233620965164 0  -0.002273787244753427 0.2232363985975174 0  0.1500564496765022 -0.1524955293952667 0  0.2016720420046758 -0.4410343282803009 0  -0.08495178036419618 0.6274139771124571 0  -0.8367311471133162 0.3642591720794645 0  -0.8333333333333334 -0.625 0  -0.594323836800685 -0.8231079456002283 0  -0.4466957714776065 -0.5349126855671806 0  0.8125 0.5625 0  0.78125 0.78125 0  0.5091392650016769 0.7947130883338923 0  0.125 -0.8382681931833136 0  -0.8184523809523809 -0.8184523809523809 0  -0.07781530426104531 -0.5819319697006881 0  0.5085055196703295 0.04967610411902112 0  0.2918471072074933 -0.276017202318847 0  0.5120763537765269 -0.5898771553229597 0  0.625 -0.8585349462365591 0  0.8158532234335381 -0.8158532234335381 0  -0.5198088446315396 0.5739411553684605 0  -0.8585349462365591 0.625 0  -0.8150493805516597 0.8156205699829586 0  0.8585349462365591 -0.625 0  -0.2688268348649726 0.5439331383603209 0  0.8242100426758139 -0.4436043596336612 0  0.5833756314287952 0.4479378157143976 0  0.8690476190476191 -0.125 0  -0.125 0.8690476190476191 0  -0.8692745600729823 0.125 0  0.8696725120759167 0.125 0  -0.625 0.8711516477451908 0  0.2339522463269718 0.3879558377955778 0  0.2453709502295031 0.5655822922838026 0  0.1730610651637797 0.02021709580868947 0  0.3245402594056757 -0.5644672020485209 0  -0.7291666666666666 -0.4816595441595442 0  -1 -0.375 0  -0.5811140848639904 -0.2127276307675001 0  0.673332592838314 0.2158348143233718 0  0.375 1 0  -0.5714768890989919 0.2985103444040069 0  -1 -0.125 0  -0.8453692574786325 -0.1875 0  -0.3144549134065865 -0.02408675326008025 0  -0.2898414972096258 -0.3336092734780093 0  -0.1075052092206287 -0.4224330421314983 0  -0.05043970703604117 -0.1652278959397459 0  0.6459672950297897 -0.1113415301525317 0  0.4645210271029513 0.6398480556579343 0  0.3512863754411909 0.0937979496253573 0  -0.6063160985568274 0.03891469652249891 0  -0.3428819444444445 0.8690476190476191 0  0.625 1 0  -0.1602164796159982 0.02697860906625157 0  0.04648110064133829 -0.4808416424239687 0  1 0.875 0  -0.3836102479201657 0.6484936449177356 0  -0.3776011723096096 0.263078478984336 0  -0.6024978259969829 -0.3949628096211138 0  0.125 1 0  0.2010781308272777 0.8456221018461906 0  0.2822509696388829 -0.845902544691141 0  -0.3285533674953515 -0.6289773550938936 0  0.3461306793221754 0.278777492464833 0  0.4737475672408696 -0.8508448959534423 0  0.2384632828836344 -0.7029523187242811 0  -0.004777287059791593 0.3759269695907358 0  -0.8499735021850066 -0.3912320205328522 0  0.1222536293721587 0.2963971539625205 0  -0.3769456520999688 -0.203572526805711 0  -0.2749617205755651 -0.8464290792698902 0  0.004805888512766143 -0.747174355248311 0  -0.125 -1 0  -0.06001061822252458 -0.8724007765244854 0  0.875 0.4375 0  0.854421179608893 0.271342359217786 0  0.875 1 0  -0.1499861095763589 0.2358309656934888 0  0.3381943639137225 0.8663061796405532 0  -0.7853090110442228 0.4998412775277108 0  0.7398165998560814 -0.5535192694951373 0  0.1580042122341573 -0.3100246140259917 0  -0.7291666666666667 -0.7142857142857142 0  -0.375 -1 0  0.6483368386154684 0.8514905990110488 0  -0.1295370103291928 -0.2826118305021242 0  0.07458201853700455 0.1123894386563915 0  0.6146465857036327 -0.3161203659316075 0  0.5551898493894731 -0.740296118159085 0  0.375 -1 0  0.482702798370208 -0.084133350091034 0  0.87890625 0.68359375 0  -0.05917195534525846 0.4971092425697621 0  0.1260710309213975 0.6343750312956699 0  0.8690476190476191 -0.3077066815262848 0  -0.2912010232560567 0.3668168386732139 0  -0.875 1 0  -1 0.875 0  1 -0.875 0  0.875 -1 0  -0.8689564281364567 -0.006189266075306407 0  -0.7449425635110547 0.08458938160051771 0  -0.7150266761936593 -0.1739444581417552 0  -0.5260034831318311 -0.711099823962112 0  -0.4724626808827322 -0.871722230709409 0  0.4734436795977052 0.377714794132168 0  -0.875 -1 0  -1 -0.875 0  0.6927189078571988 0.5156567235715964 0  -0.3742497615796874 -0.4296005251260107 0  -0.1969436423297711 -0.6387157229772615 0  -0.6179496409766825 -0.08933356056510935 0  -0.424405057115988 0.04452428810878029 0  -0.08479048335844169 0.1279607007132633 0  0.003830300099055113 0.8712085230656206 0  0.8748778838820267 -1.379218479898026e-05 0  -0.375 1 0  -0.625 1 0  1 0.125 0  -0.125 1 0  1 -0.375 0  1 -0.125 0  1 -0.625 0  0.625 -1 0  0.125 -1 0  -0.625 -1 0  -1 -0.625 0  -1 0.125 0  -1 0.375 0  -1 0.625 0  1 0.375 0  1 0.625 0  0.6325660748712082 0.3335187599557389 0  -0.06420945895056573 0.7549874027425891 0  -0.8769015540914771 0.2478802253893416 0  0.871875 0.871875 0  -0.6868091492840067 0.3270978624973681 0  -0.5363597469565949 0.412994850055505 0  -0.6803734992638302 0.5574295000651103 0  -0.7076253581162534 -0.8803439094224437 0  -0.8778089002295137 -0.5106896447504627 0  -0.3860184984222981 0.530566778071246 0  0.6109900617121508 0.1128453077697081 0  0.3896945134930274 -0.1915382873255086 0  0.7605656944697778 -0.06822134873122943 0  0.3576151269893478 0.5948388411612135 0  -0.5689902680792265 -0.5143596830118065 0  0.6262446286847614 -0.5735657901943212 0  0.2030558252325225 -0.5625263842513452 0  0.6123273142928579 0.7407533260723429 0  0.4016460890123554 -0.3042863223111857 0  -0.59039693199147 0.7578418819188018 0  0.7276932493917544 -0.3705808024528924 0  0.5222536818742854 -0.4713886230400014 0  -0.5101986527137737 0.8848365765607674 0  0.510560172809238 0.5356013299918891 0  -0.3603569195756083 0.75823710606415 0  0.1967279277813232 0.728226870058472 0  -0.6086880986371127 0.1545624071548516 0  -0.38105366729386 0.1511189987807864 0  -0.2944659463671584 -0.7359061804869591 0  0.5060729154966499 -0.3475227845833823 0  -0.09281616240412746 -0.06197858250969457 0  0.7649739583333334 0.6673177083333334 0  0.7628906249999999 0.890234375 0  -0.2666864184909611 0.2585504071132311 0  0.3635064892129658 0.3878003602709461 0  -0.2339409722222222 0.8901937905844155 0  -0.1718792125974916 -0.8957733325456778 0  0.1001768566329531 0.4023510017391879 0  0.3120260172693757 -0.4540546875576884 0  0.7804062804433681 0.1896628610854537 0  0.4087715451998049 0.187961780041608 0  -0.1584963477271457 0.5451611892421655 0  -0.8926817849258324 0.463022006336401 0  0.2338091473445219 -0.07576267331277289 0  0.08171112182813692 -0.2349087687359925 0  0.04635385178956847 -0.1044635073718474 0  -0.4377391632114205 -0.6448874471423088 0  -0.1907678351227189 0.6480215912813945 0  0.300605946475244 0.4741444604171038 0  -0.2145033720757486 -0.06751709909419711 0  0.6069191921170397 -0.005492331448357812 0  0.0214718770761248 0.6032397936031719 0  0.5476675683364878 0.8992752415326501 0  0.4387475014316537 0.9093708953002239 0  -0.4932997685306436 -0.4381009159993523 0  0.2515197695339056 -0.1791673369138964 0  -0.7291666666666667 -0.6088789682539681 0  -0.9166666666666667 -0.6875 0  0.620579540363709 -0.2122431523583302 0  -0.484950136419973 0.6719440339397442 0  0.2857044415400258 0.0137589173127316 0  -0.8945708364098356 -0.288306105327986 0  0.4043102720140535 0.7842914560451557 0  0.04123256238752064 -0.9026968245801402 0  0.2003676884403109 -0.9091888601740487 0  0.1068775558538842 -0.7373377130403223 0  -0.4804566783514427 -0.1763307203045643 0  0.108286342087769 -0.3993789328997278 0  -0.191883080105361 -0.3640821726430649 0  -0.07025064492006244 0.2984876656890053 0  -0.7039324641409584 0.788312126296613 0  -0.7311286585775438 0.8932502354831682 0  0.5171409396884947 0.1503852691889257 0  0.4229392823658633 -0.003216522184234835 0  -0.5621736087218259 -0.919558629836806 0  -0.626474064879544 -0.7266572613636506 0  0.2446828746617422 0.2867616783302419 0  0.1759429608742923 0.4776611759306416 0  -0.3468240303741654 -0.5260416435617549 0  -0.7465808808425306 0.4069574477998361 0  -0.7819962170660292 0.2802441065650652 0  -0.3742623214119594 -0.8547800509641984 0  0.1014498009713561 0.8506721983266377 0  0.4285217620918213 -0.5230190595570253 0  0.4091738370487775 -0.6256346204225141 0  0.78125 0.46875 0  0.90625 0.53125 0  -0.4791801348852565 0.2553992655702126 0  0.7843318610782772 -0.7086046956885941 0  0.8909728264971901 -0.7355183796514634 0  0.7041908166528879 -0.7830649143180282 0  0.731182135
[...]
<PointData  Scalars="f_23"> 
<DataArray  type="Float64"  Name="f_23"  format="ascii">3.4136304007822618e-04  3.4136304007822618e-04  3.4136304007822618e-04  3.4136304007822618e-04  3.4136311363468951e-04  3.4136311188162025e-04  3.4136311363468951e-04  3.4136311188162025e-04  3.4136303228608512e-04  3.4136355795119807e-04  3.4136355292910107e-04  3.4136355292910107e-04  3.4136356441514273e-04  3.4136355795119807e-04  3.4136356261623953e-04  3.4136356441514273e-04  3.4136356261623953e-04  3.4136400127428101e-04  3.4136398240991163e-04  3.4136379952278274e-04  3.4136384567588399e-04  3.4136358200106162e-04  3.4136360781129762e-04  3.4136393403147133e-04  3.4136390886751718e-04  3.4136361205207012e-04  3.4136356914178222e-04  3.4136354023561326e-04  3.4136354891225996e-04  3.4136381600518141e-04  3.4136375550122806e-04  3.4136348280189950e-04  3.4136367699729629e-04  3.4136369000948598e-04  3.4136344311516079e-04  3.4136343701073041e-04  3.4136381028070236e-04  3.4136340781206636e-04  3.4136345536414159e-04  3.4136367990947016e-04  3.4136340289207161e-04  3.4136341209005269e-04  3.4136330106655614e-04  3.4136332092018888e-04  3.4136334823758885e-04  3.4136332203320687e-04  3.4136338089463887e-04  3.4136389098305341e-04  3.4136396682127236e-04  3.4136333265105825e-04  3.4136334100547241e-04  3.4136330106655614e-04  3.4136332203320687e-04  3.4136330278297205e-04  3.4136333584104249e-04  3.4136330278297205e-04  3.4136334100547241e-04  3.4136332092018888e-04  3.4136334823758885e-04  3.4136333265105825e-04  3.4136333584104249e-04  3.4136374906163988e-04  3.4136337621227587e-04  3.4136360894911028e-04  3.4136395126668979e-04  3.4136363078440102e-04  3.4136374825518288e-04  3.4136395856170090e-04  3.4136374427569399e-04  3.4136332829578939e-04  3.4136329267023220e-04  3.4136371662840843e-04  3.4136348807531613e-04  3.4136356663512886e-04  3.4136361733546028e-04  3.4136363797615700e-04  3.4136394985383650e-04  3.4136370230717278e-04  3.4136348260662276e-04  3.4136374602997246e-04  3.4136329838225691e-04  3.4136337722695477e-04  3.4136355347024594e-04  3.4136356730178266e-04  3.4136365390842466e-04  3.4136395270151936e-04  3.4136357667411766e-04  3.4136336710316088e-04  3.4136399012697603e-04  3.4136358596021960e-04  3.4136334467367167e-04  3.4136353854978313e-04  3.4136384187208432e-04  3.4136367670779957e-04  3.4136395641696452e-04  3.4136316936433112e-04  3.4136323769230059e-04  3.4136320362457734e-04  3.4136322490616419e-04  3.4136357199857461e-04  3.4136371762532902e-04  3.4136374801536348e-04  3.4136320205571907e-04  3.4136391769136850e-04  3.4136375093388768e-04  3.4136349992654901e-04  3.4136373112276418e-04  3.4136365535785676e-04  3.4136347134461066e-04  3.4136390873022845e-04  3.4136312560740058e-04  3.4136327289486943e-04  3.4136341277085739e-04  3.4136371852754737e-04  3.4136357721366095e-04  3.4136314014925116e-04  3.4136352732379186e-04  3.4136394250868760e-04  3.4136350297059688e-04  3.4136350974585785e-04  3.4136350530656381e-04  3.4136347391118912e-04  3.4136320981128929e-04  3.4136357673126438e-04  3.4136319075570205e-04  3.4136382502198212e-04  3.4136376475626679e-04  3.4136388728028279e-04  3.4136316431616166e-04  3.4136334122867413e-04  3.4136354211187499e-04  3.4136379829358121e-04  3.4136376559616607e-04  3.4136361752058324e-04  3.4136359941130978e-04  3.4136349066607864e-04  3.4136363036827404e-04  3.4136350739153755e-04  3.4136367737942460e-04  3.4136350096945317e-04  3.4136335238495392e-04  3.4136314219628910e-04  3.4136318283443413e-04  3.4136360986223441e-04  3.4136341016589606e-04  3.4136314037911991e-04  3.4136336472805214e-04  3.4136350819259691e-04  3.4136373200073652e-04  3.4136379236021294e-04  3.4136353716362897e-04  3.4136363869717985e-04  3.4136350474118664e-04  3.4136358627652610e-04  3.4136345038068421e-04  3.4136321155826154e-04  3.4136384756669068e-04  3.4136380660425308e-04  3.4136347134461066e-04  3.4136357871320476e-04  3.4136346882868477e-04  3.4136357909967323e-04  3.4136361035977066e-04  3.4136348980755310e-04  3.4136384131814429e-04  3.4136317261861511e-04  3.4136319075570205e-04  3.4136315676242939e-04  3.4136314037911991e-04  3.4136318498985050e-04  3.4136335948165843e-04  3.4136345050857773e-04  3.4136393087057362e-04  3.4136364667957427e-04  3.4136397638543758e-04  3.4136317261861511e-04  3.4136315676242939e-04  3.4136385842503263e-04  3.4136387728965587e-04  3.4136362983974244e-04  3.4136349965225947e-04  3.4136354360628473e-04  3.4136319778251478e-04  3.4136317805002830e-04  3.4136311633712441e-04  3.4136350474118664e-04  3.4136346338935772e-04  3.4136316965184142e-04  3.4136314219628910e-04  3.4136349992654901e-04  3.4136312560740058e-04  3.4136350175567425e-04  3.4136347391118912e-04  3.4136316431616166e-04  3.4136346338935772e-04  3.4136350175567425e-04  3.4136316965184142e-04  3.4136348904938580e-04  3.4136353411359918e-04  3.4136348904938580e-04  3.4136353411359918e-04  3.4136382644098972e-04  3.4136332843249536e-04  3.4136335153503141e-04  3.4136322687680111e-04  3.4136373991317670e-04  3.4136402030103091e-04  3.4136387356560128e-04  3.4136340135293913e-04  3.4136363382911172e-04  3.4136400848153533e-04  3.4136356546179145e-04  3.4136362849573860e-04  3.4136333717468885e-04  3.4136389305346534e-04  3.4136396504475653e-04  3.4136396900169504e-04  3.4136369739146588e-04  3.4136376297883546e-04  3.4136382847315972e-04  3.4136373847240347e-04  3.4136381288510121e-04  3.4136405729579374e-04  3.4136363449972681e-04  3.4136399360503003e-04  3.4136367719316175e-04  3.4136348359569031e-04  3.4136361690119063e-04  3.4136361626058604e-04  3.4136365015132001e-04  3.4136395229964411e-04  3.4136313053915470e-04  3.4136365116907490e-04  3.4136338929529562e-04  3.4136361087391099e-04  3.4136391995437089e-04  3.4136335646963080e-04  3.4136328546200778e-04  3.4136357399269546e-04  3.4136387391452621e-04  3.4136336039357400e-04  3.4136368848633421e-04  3.4136368067153418e-04  3.4136358635125842e-04  3.4136333812639582e-04  3.4136339124536176e-04  3.4136307556362233e-04  3.4136393688923532e-04  3.4136365301623897e-04  3.4136384212180492e-04  3.4136330754839622e-04  3.4136350261824175e-04  3.4136352539169772e-04  3.4136360137007442e-04  3.4136356544238851e-04  3.4136404174765371e-04  3.4136348853522244e-04  3.4136378764190365e-04  3.4136344956026214e-04  3.4136367197663874e-04  3.4136392217363451e-04  3.4136333638790664e-04  3.4136344571860446e-04  3.4136372957785697e-04  3.4136316505639582e-04  3.4136331807285968e-04  3.4136341284867708e-04  3.4136370570555201e-04  3.4136355963190274e-04  3.4136363368912013e-04  3.4136338439287584e-04  3.4136354057574212e-04  3.4136342312379952e-04  3.4136365962674181e-04  3.4136353687980902e-04  3.4136355317657455e-04  3.4136381690709765e-04  3.4136364300066564e-04  3.4136367559410851e-04  3.4136386036178330e-04  3.4136377452104324e-04  3.4136357318656659e-04  3.4136361110128716e-04  3.4136322673864291e-04  3.4136405128203101e-04  3.4136394560914661e-04  3.4136375769927752e-04  3.4136360979055878e-04  3.4136378713147260e-04  3.4136355332444450e-04  3.4136337928572557e-04  3.4136360096549294e-04  3.4136341913999936e-04  3.4136319845867730e-04  3.4136337790956775e-04  3.4136355369307275e-04  3.4136375373624867e-04  3.4136324162344469e-04  3.4136321548985363e-04  3.4136321864580027e-04  3.4136348322245404e-04  3.4136319915727397e-04  3.4136320845089626e-04  3.4136370386020912e-04  3.4136390051934531e-04  3.4136360399014378e-04  3.4136341157666415e-04  3.4136352315199228e-04  3.4136365790246066e-04  3.4136374445139502e-04  3.4136358513737650e-04  3.4136332919152405e-04  3.4136352669183703e-04  3.4136391278164017e-04  3.4136359600038920e-04  3.4136355986051891e-04  3.4136362934359055e-04  3.4136353719043067e-04  3.4136332112978055e-04  3.4136402076862307e-04  3.4136407227380872e-04  3.4136400793884411e-04  3.4136365307792401e-04  3.4136364983322008e-04  3.4136345353745414e-04  3.4136378929377928e-04  3.4136333175311339e-04  3.4136334780016022e-04  3.4136384758931830e-04  3.4136329526701409e-04  3.4136382675702272e-04  3.4136387390707248e-04  3.4136343316787247e-04  3.4136339686549155e-04  3.4136326661560505e-04  3.4136326101262185e-04  3.4136356758454004e-04  3.4136355580489740e-04  3.4136389956025042e-04  3.4136395590971517e-04  3.4136387404832533e-04  3.4136308826800680e-04  3.4136339106356062e-04  3.4136313470728343e-04  3.4136329214190162e-04  3.4136329275572062e-04  3.4136348101656725e-04  3.4136346068346660e-04  3.4136386793789285e-04  3.4136356164319248e-04  3.4136340933203286e-04  3.4136322403412059e-04  3.4136371400332274e-04  3.4136311045691024e-04  3.4136354038893289e-04  3.4136374220314347e-04  3.4136370051715607e-04  3.4136395081547038e-04  3.4136330966300630e-04  3.4136341853112129e-04  3.4136308804463285e-04  3.4136310630645281e-04  3.4136311828478406e-04  3.4136312093340789e-04  3.4136313559051209e-04  3.4136322703079598e-04  3.4136345176487314e-04  3.4136374602840476e-04  3.4136358663741255e-04  3.4136337023265195e-04  3.4136344573631116e-04  3.4136382147446448e-04  3.4136381984909082e-04  3.4136339923095035e-04  3.4136309249923052e-04  3.4136321917659090e-04  3.4136359038686555e-04  3.4136369210175169e-04  3.4136328479903420e-04  3.4136322347506356e-04  3.4136391033843540e-04  3.4136325948983941e-04  3.4136324292682819e-04  3.4136378242820731e-04  3.4136385152550556e-04  3.4136385663990042e-04  3.4136354289207794e-04  3.4136393695271769e-04  3.4136357491614130e-04  3.4136336375196417e-04  3.4136352553078937e-04  3.4136374056990945e-04  3.4136355896502722e-04  3.4136359819883234e-04  3.4136375596957792e-04  3.4136357244303662e-04  3.4136355786328320e-04  3.4136331688279194e-04  3.4136363401279286e-04  3.4136347311846727e-04  3.4136364520200469e-04  3.4136343953715691e-04  3.4136348875753566e-04  3.4136341393323254e-04  3.4136394152020768e-04  3.4136364042460264e-04  3.4136390650835749e-04  3.4136356448174094e-04  3.4136352380853340e-04  3.4136344812499454e-04  3.4136365841972355e-04  3.4136374815335065e-04  3.4136372283606045e-04  3.4136385887319556e-04  3.4136395447301301e-04  3.4136362374228825e-04  3.4136355106767583e-04  3.4136312013343512e-04  3.4136318651364070e-04  3.4136369137813109e-04  3.4136398412315636e-04  3.4136353654645334e-04  3.4136343433085727e-04  3.4136360693455152e-04  3.4136369135967119e-04  3.4136363735868885e-04  3.4136393929526246e-04  3.4136396362609972e-04  3.4136400505060309e-04  3.4136353811232241e-04  3.4136353321332041e-04  3.4136344167580852e-04  3.4136356802908798e-04  3.4136329485063514e-04  3.4136320925231113e-04  3.4136318238759853e-04  3.4136365817518066e-04  3.4136357180342722e-04  3.4136389520393037e-04  3.4136357241183925e-04  3.4136367558418665e-04  3.4136324675725701e-04  3.4136360877581125e-04  3.4136354837639038e-04  3.4136338583256611e-04  3.4136374934357912e-04  3.4136360623044162e-04  3.4136325259694631e-04  3.4136377391536275e-04  3.4136378349853614e-04  3.4136351025497002e-04  3.4136396295625279e-04  3.4136347025131013e-04  3.4136322516607043e-04  3.4136337101345928e-04  3.4136372838549723e-04  3.4136355419368548e-04  3.4136308155834386e-04  3.4136356981037832e-04  3.4136317100351898e-04  3.4136393672982963e-04  3.4136381364003026e-04  3.4136349351994487e-04  3.4136386993723772e-04  3.4136331759000547e-04  3.4136347534064826e-04  3.4136361575091631e-04  3.4136354643530008e-04  3.4136341663939184e-04  3.4136341369929646e-04  3.4136343984282185e-04  3.4136374288412576e-04  3.4136316926658834e-04  3.4136383878127682e-04  3.4136372871659918e-04  3.4136363809792586e-04  3.4136385658691963e-04  3.4136380772947864e-04  3.4136334231128041e-04  3.4136352570491690e-04  3.4136344229035876e-04  3.4136368454207658e-04  3.4136346397199046e-04  3.4136370182356743e-04  3.4136355372448479e-04  3.4136341689037787e-04  3.4136393862720766e-04  3.4136355286411204e-04  3.4136356493082431e-04  3.4136350320142407e-04  3.4136344128536764e-04  3.4136333663601856e-04  3.4136341454820134e-04  3.4136334554743156e-04  3.4136356190093167e-04  3.4136384053237067e-04  3.4136365069007318e-04  3.4136373578911498e-04  3.4136403928137165e-04  3.4136341822184606e-04  3.4136310590876626e-04  3.4136344229035876e-04  3.4136353331378345e-04  3.4136325783459348e-04  3.4136332030266619e-04  3.4136384152647607e-04  3.4136370312506340e-04  3.4136378157225734e-04  3.4136350798872581e-04  3.4136350344564776e-04  3.4136319079328283e-04  3.4136358906436637e-04  3.4136340853317497e-04  3.4136362540702637e-04  3.4136358792859640e-04  3.4136357543674211e-04  3.4136355610551268e-04  3.4136349089218141e-04  3.4136356578137739e-04  3.4136315917394108e-04  3.4136370501494640e-04  3.4136356334407177e-04  3.4136360698105002e-04  3.4136356820987907e-04  3.4136367685077651e-04  3.4136333117419475e-04  3.4136352934538146e-04  3.4136386882984272e-04  3.4136324180454087e-04  3.4136302395093945e-04  3.4136318541483883e-04  3.4136353631965277e-04  3.4136389133392444e-04  3.4136374378543441e-04  3.4136372434872289e-04  3.4136375327142610e-04  3.4136357831334471e-04  3.4136365902130022e-04  3.4136352816973556e-04  3.4136316926658834e-04  3.4136312835818781e-04  3.4136366374718234e-04  3.4136339885185570e-04  3.4136341131986843e-04  3.4136354187121979e-04  3.4136358440593593e-04  3.4136351520203974e-04  3.4136346734167509e-04  3.4136339742582344e-04  3.4136352884691663e-04  3.4136365156296018e-04  3.4136346063050311e-04  3.4136344703866787e-04  3.4136342961020751e-04  3.4136341765954157e-04  3.4136375077955503e-04  3.4136357130951035e-04  3.4136347037226156e-04  3.4136373764506088e-04  3.4136365788636118e-04  3.4136373933110032e-04  3.4136380786117804e-04  3.4136395671396149e-04  3.4136376635277233e-04  3.4136341454820134e-04  3.4136383416804168e-04  3.4136357419500997e-04  3.4136320675123936e-04  3.4136399759550037e-04  3.4136325232751925e-04  3.4136353453455721e-04  3.4136336436393466e-04  3.4136304268687147e-04  3.4136316493133933e-04  3.4136330237505573e-04  3.4136370538905030e-04  3.4136350315477893e-04  3.4136363574666269e-04  3.4136322302045303e-04  3.4136327402422201e-04  3.4136334896961722e-04  3.4136337593263828e-04  3.4136388765237100e-04  3.4136355897957662e-04  3.4136376592958442e-04  3.4136357698807306e-04  3.4136352626396331e-04  3.4136334138243563e-04  3.4136340420079698e-04  3.4136383469044059e-04  3.4136333734691908e-04  3.4136357199960010e-04  3.4136327714121250e-04  3.4136390157433035e-04  3.4136349408249266e-04  3.4136371843085448e-04  3.4136380062483359e-04  3.4136323883468452e-04  3.4136383249899451e-04  3.4136357163404811e-04  3.4136362628478620e-04  3.4136374305898567e-04  3.4136382311551159e-04  3.4136318473699048e-04  3.4136319934106283e-04  3.4136347824458322e-04  3.4136356857767644e-04  3.4136374449337387e-04  3.4136387297138714e-04  3.4136397180895201e-04  3.4136394045421745e-04  3.4136313942195246e-04  3.4136317100351898e-04  3.4136378553664161e-04  3.4136371150177733e-04  3.4136351123074965e-04  3.4136354225237459e-04  3.4136362111487954e-04  3.4136344793082857e-04  3.4136348288244672e-04  3.4136365427855567e-04  3.4136349450278401e-04  3.4136361989039300e-04  3.4136385576534923e-04  3.4136400972871098e-04  3.4136308300676392e-04  3.4136319192331856e-04  3.4136329744480535e-04  3.4136336147748100e-04  3.4136379650669975e-04  3.4136340531812468e-04  3.4136402219933550e-04  3.4136404851953857e-04  3.4136388069663798e-04  3.4136374804332256e-04  3.4136352133576646e-04  3.4136352717434933e-04  3.4136338665961239e-04  3.4136334340478710e-04  3.4136341632849958e-04  3.4136372500020534e-04  3.4136379012923387e-04  3.4136331182580646e-04  3.4136317770700950e-04  3.4136336956596167e-04  3.4136376062269674e-04  3.4136391365540097e-04  3.4136357257156868e-04  3.4136359363904170e-04  3.4136379519241882e-04  3.4136318193049049e-04  3.4136312042834071e-04  3.4136359897679705e-04  3.4136350572007402e-04  3.4136309596406028e-04  3.4136312853522269e-04  3.4136314904614865e-04  3.4136330668006125e-04  3.4136355027874902e-04  3.4136339305438924e-04  3.4136320346782095e-04  3.4136339456483422e-04  3.4136341369929646e-04  3.4136304657765771e-04  3.4136308155834386e-04  3.4136308300676392e-04  3.4136338174993420e-04  3.4136319192331856e-04  3.4136353811232241e-04  3.4136320346782095e-04  3.4136338174993420e-04  3.4136353341035112e-04  3.4136341689037787e-04  3.4136310925684063e-04  3.4136299466705180e-04  3.4136322369597582e-04  3.4136319934106283e-04  3.4136310925684063e-04  3.4136299466705180e-04  3.4136311063184317e-04  3.4136353631965277e-04  3.4136339456483422e-04  3.4136352717434933e-04  3.4136352626396331e-04  3.4136324396955372e-04  3.4136324396955372e-04  3.4136318685050335e-04  3.4136355106767583e-04  3.4136321312498231e-04  3.4136339305438924e-04  3.4136353341035112e-04  3.4136318685050335e-04  3.4136304657765771e-04  3.4136312835818781e-04  3.4136322369597582e-04  3.4136321312498231e-04  3.4136355027874902e-04  3.4136311063184317e-04  3.4136355610551268e-04  3.4136336147748100e-04  3.4136403810234358e-04  3.4136396470086760e-04  3.4136321739906193e-04  3.4136378582031384e-04  3.4136365773331699e-04  3.4136392545532090e-04  3.4136371456916102e-04  3.4136393936417896e-04  3.4136400728591539e-04  3.4136386412548408e-04  3.4136370210756416e-04  3.4136348884068632e-04  3.4136355944618780e-04  3.4136376792749722e-04  3.4136382807364792e-04  3.4136331987179102e-04  3.4136352050125377e-04  3.4136335847812719e-04  3.4136315181437229e-04  3.4136309404916366e-04  3.4136363731952779e-04  3.4136362134340150e-04  3.4136327105700385e-04  3.4136329274038582e-04  3.4136394361528906e-04  3.4136319677352924e-04  3.4136316823445801e-04  3.4136343851985310e-04  3.4136381158503379e-04  3.4136315039891052e-04  3.4136359054618538e-04  3.4136373086245640e-04  3.4136362000958536e-04  3.4136337482067977e-04  3.4136389711512103e-04  3.4136336659800897e-04  3.4136384614561860e-04  3.4136372606707627e-04  3.4136378049935294e-04  3.4136354504417995e-04  3.4136392220108288e-04  3.4136351468443056e-04  3.4136353988434807e-04  3.4136397828577440e-04  3.4136351714634291e-04  3.4136357375723911e-04  3.4136360457794073e-04  3.4136362163941271e-04  3.4136356527775165e-04  3.4136358482315406e-04  3.4136346058571141e-04  3.4136311017447357e-04  3.4136404820901732e-04  3.4136398351981910e-04  3.4136401007343409e-04  3.4136383315026115e-04  3.4136392276436510e-04  3.4136329993413983e-04  3.4136351678941309e-04  3.4136353251460898e-04  3.4136377065484226e-04  3.4136321521504345e-04  3.4136332152203292e-04  3.4136399639579174e-04  3.4136401928827392e-04  3.4136354903278188e-04  3.4136314546607925e-04  3.4136368447108503e-04  3.4136368101902483e-04  3.4136380909202121e-04  3.4136387914877084e-04  3.4136366016523695e-04  3.4136379117818326e-04  3.4136367527539747e-04  3.4136347070702508e-04  3.4136344669071932e-04  3.4136375391819948e-04  3.4136369528585300e-04  3.4136352034294480e-04  3.4136389753454871e-04  3.4136399645276299e-04  3.4136346859364557e-04  3.4136340591556339e-04  3.4136334190631491e-04  3.4136320143198786e-04  3.4136320816828325e-04  3.4136338117904153e-04  3.4136332818170253e-04  3.4136381094536378e-04  3.4136362964703543e-04  3.4136352649524938e-04  3.4136387235175221e-04  3.4136368677061788e-04  3.4136385487331994e-04  3.4136379409888421e-04  3.4136353706985394e-04  3.4136343379177053e-04  3.4136348144090214e-04  3.4136335214075993e-04  3.4136384623527783e-04  3.4136359818427410e-04  3.4136330579302146e-04  3.4136354821768605e-04  3.4136314479256804e-04  3.4136385804683526e-04  3.4136345100610677e-04  3.4136389369186207e-04  3.4136396072679284e-04  3.4136351352917493e-04  3.4136343721875059e-04  3.4136351544581598e-04  3.4136368115291317e-04  3.4136355635169200e-04  3.4136363517736282e-04  3.4136315528614209e-04  3.4136394755722980e-04  3.4136383998961093e-04  3.4136405389804101e-04  3.4136335381052240e-04  3.4136354440965675e-04  3.4136395096558538e-04  3.4136348005218975e-04  3.4136372068857264e-04  3.4136335219922792e-04  3.4136359934752459e-04  3.4136364989346057e-04  3.4136353202173360e-04  3.4136343329362924e-04  3.4136355694074734e-04  3.4136408931340989e