<?xml version="1.0"?>
<VTKFile type="UnstructuredGrid"  version="0.1"  >
<UnstructuredGrid>
<Piece  NumberOfPoints="5315" NumberOfCells="10372">
<Points>
<DataArray  type="Float64"  NumberOfComponents="3"  format="ascii">-1 -1 0  1 -1 0  1 1 0  -1 1 0  0 -1 0  1 0 0  0 1 0  -1 0 0  0 0 0  -1 -0.5 0  -0.5 -1 0  -0.5 1 0  -1 0.5 0  1 -0.5 0  0.5 -1 0  1 0.5 0  0.5 1 0  0.4166666666666666 -0.4166666666666667 0  -0.4166666666666667 0.4166666666666667 0  -0.25 -0.5 0  0.5 0.25 0  -0.4861111111111112 -0.06944444444444445 0  0.0732758620689655 0.507183908045977 0  -0.625 -0.625 0  0.625 0.625 0  0.7380952380952381 -0.25 0  -0.7099116161616161 0.2105429292929293 0  -0.25 0.7380952380952381 0  0.105392156862745 -0.6348039215686275 0  0.6770833333333334 -0.6770833333333333 0  -0.6770833333333334 0.6770833333333334 0  0.3472222222222222 -0.06944444444444446 0  -0.7264957264957265 -0.3044871794871795 0  0.3141940982507127 0.7297313660835709 0  0.02049587951122483 -0.3227479397556124 0  -0.2690972222222223 0.1475694444444444 0  0.3859500089908372 -0.7274430156831472 0  -0.2228477945123298 -0.1761765495248019 0  0.2182539682539683 0.1884920634920635 0  0.75 0.375 0  -0.145442219440968 -0.7602211097204841 0  0.7088913690476191 0.0427827380952381 0  -0.75 -1 0  -1 -0.75 0  1 0.75 0  0.75 1 0  -0.7439982703698937 -0.04614153195464455 0  -0.4609235096577606 -0.3356498099556895 0  0.4063134471431929 0.4895621842856023 0  0.25 -1 0  -0.25 -1 0  -0.75 1 0  0.75 -1 0  -1 -0.25 0  -1 0.25 0  1 -0.25 0  -0.25 1 0  1 -0.75 0  -1 0.75 0  0.25 1 0  1 0.25 0  -0.4041423272138783 -0.7597141090712928 0  0.06500839607911253 0.7578103030529481 0  -0.1572801182352047 0.3838997021864289 0  -0.6528005242053915 0.4409494757946086 0  -0.4930160984848485 0.1544744318181818 0  -0.4732142857142858 0.7752976190476191 0  0.6398809523809523 -0.4538690476190476 0  0.5166054117396399 -0.2161233620965164 0  -0.002273787244753427 0.2232363985975174 0  0.1500564496765022 -0.1524955293952667 0  0.2016720420046758 -0.4410343282803009 0  -0.08495178036419618 0.6274139771124571 0  -0.8367311471133162 0.3642591720794645 0  -0.8333333333333334 -0.625 0  -0.594323836800685 -0.8231079456002283 0  -0.4466957714776065 -0.5349126855671806 0  0.8125 0.5625 0  0.78125 0.78125 0  0.5091392650016769 0.7947130883338923 0  0.125 -0.8382681931833136 0  -0.8184523809523809 -0.8184523809523809 0  -0.07781530426104531 -0.5819319697006881 0  0.5085055196703295 0.04967610411902112 0  0.2918471072074933 -0.276017202318847 0  0.5120763537765269 -0.5898771553229597 0  0.625 -0.8585349462365591 0  0.8158532234335381 -0.8158532234335381 0  -0.5198088446315396 0.5739411553684605 0  -0.8585349462365591 0.625 0  -0.8150493805516597 0.8156205699829586 0  0.8585349462365591 -0.625 0  -0.2688268348649726 0.5439331383603209 0  0.8242100426758139 -0.4436043596336612 0  0.5833756314287952 0.4479378157143976 0  0.8690476190476191 -0.125 0  -0.125 0.8690476190476191 0  -0.8692745600729823 0.125 0  0.8696725120759167 0.125 0  -0.625 0.8711516477451908 0  0.2339522463269718 0.3879558377955778 0  0.2453709502295031 0.5655822922838026 0  0.1730610651637797 0.02021709580868947 0  0.3245402594056757 -0.5644672020485209 0  -0.7291666666666666 -0.4816595441595442 0  -1 -0.375 0  -0.5811140848639904 -0.2127276307675001 0  0.673332592838314 0.2158348143233718 0  0.375 1 0  -0.5714768890989919 0.2985103444040069 0  -1 -0.125 0  -0.8453692574786325 -0.1875 0  -0.3144549134065865 -0.02408675326008025 0  -0.2898414972096258 -0.3336092734780093 0  -0.1075052092206287 -0.4224330421314983 0  -0.05043970703604117 -0.1652278959397459 0  0.6459672950297897 -0.1113415301525317 0  0.4645210271029513 0.6398480556579343 0  0.3512863754411909 0.0937979496253573 0  -0.6063160985568274 0.03891469652249891 0  -0.3428819444444445 0.8690476190476191 0  0.625 1 0  -0.1602164796159982 0.02697860906625157 0  0.04648110064133829 -0.4808416424239687 0  1 0.875 0  -0.3836102479201657 0.6484936449177356 0  -0.3776011723096096 0.263078478984336 0  -0.6024978259969829 -0.3949628096211138 0  0.125 1 0  0.2010781308272777 0.8456221018461906 0  0.2822509696388829 -0.845902544691141 0  -0.3285533674953515 -0.6289773550938936 0  0.3461306793221754 0.278777492464833 0  0.4737475672408696 -0.8508448959534423 0  0.2384632828836344 -0.7029523187242811 0  -0.004777287059791593 0.3759269695907358 0  -0.8499735021850066 -0.3912320205328522 0  0.1222536293721587 0.2963971539625205 0  -0.3769456520999688 -0.203572526805711 0  -0.2749617205755651 -0.8464290792698902 0  0.004805888512766143 -0.747174355248311 0  -0.125 -1 0  -0.06001061822252458 -0.8724007765244854 0  0.875 0.4375 0  0.854421179608893 0.271342359217786 0  0.875 1 0  -0.1499861095763589 0.2358309656934888 0  0.3381943639137225 0.8663061796405532 0  -0.7853090110442228 0.4998412775277108 0  0.7398165998560814 -0.5535192694951373 0  0.1580042122341573 -0.3100246140259917 0  -0.7291666666666667 -0.7142857142857142 0  -0.375 -1 0  0.6483368386154684 0.8514905990110488 0  -0.1295370103291928 -0.2826118305021242 0  0.07458201853700455 0.1123894386563915 0  0.6146465857036327 -0.3161203659316075 0  0.5551898493894731 -0.740296118159085 0  0.375 -1 0  0.482702798370208 -0.084133350091034 0  0.87890625 0.68359375 0  -0.05917195534525846 0.4971092425697621 0  0.1260710309213975 0.6343750312956699 0  0.8690476190476191 -0.3077066815262848 0  -0.2912010232560567 0.3668168386732139 0  -0.875 1 0  -1 0.875 0  1 -0.875 0  0.875 -1 0  -0.8689564281364567 -0.006189266075306407 0  -0.7449425635110547 0.08458938160051771 0  -0.7150266761936593 -0.1739444581417552 0  -0.5260034831318311 -0.711099823962112 0  -0.4724626808827322 -0.871722230709409 0  0.4734436795977052 0.377714794132168 0  -0.875 -1 0  -1 -0.875 0  0.6927189078571988 0.5156567235715964 0  -0.3742497615796874 -0.4296005251260107 0  -0.1969436423297711 -0.6387157229772615 0  -0.6179496409766825 -0.08933356056510935 0  -0.424405057115988 0.04452428810878029 0  -0.08479048335844169 0.1279607007132633 0  0.003830300099055113 0.8712085230656206 0  0.8748778838820267 -1.379218479898026e-05 0  -0.375 1 0  -0.625 1 0  1 0.125 0  -0.125 1 0  1 -0.375 0  1 -0.125 0  1 -0.625 0  0.625 -1 0  0.125 -1 0  -0.625 -1 0  -1 -0.625 0  -1 0.125 0  -1 0.375 0  -1 0.625 0  1 0.375 0  1 0.625 0  0.6325660748712082 0.3335187599557389 0  -0.06420945895056573 0.7549874027425891 0  -0.8769015540914771 0.2478802253893416 0  0.871875 0.871875 0  -0.6868091492840067 0.3270978624973681 0  -0.5363597469565949 0.412994850055505 0  -0.6803734992638302 0.5574295000651103 0  -0.7076253581162534 -0.8803439094224437 0  -0.8778089002295137 -0.5106896447504627 0  -0.3860184984222981 0.530566778071246 0  0.6109900617121508 0.1128453077697081 0  0.3896945134930274 -0.1915382873255086 0  0.7605656944697778 -0.06822134873122943 0  0.3576151269893478 0.5948388411612135 0  -0.5689902680792265 -0.5143596830118065 0  0.6262446286847614 -0.5735657901943212 0  0.2030558252325225 -0.5625263842513452 0  0.6123273142928579 0.7407533260723429 0  0.4016460890123554 -0.3042863223111857 0  -0.59039693199147 0.7578418819188018 0  0.7276932493917544 -0.3705808024528924 0  0.5222536818742854 -0.4713886230400014 0  -0.5101986527137737 0.8848365765607674 0  0.510560172809238 0.5356013299918891 0  -0.3603569195756083 0.75823710606415 0  0.1967279277813232 0.728226870058472 0  -0.6086880986371127 0.1545624071548516 0  -0.38105366729386 0.1511189987807864 0  -0.2944659463671584 -0.7359061804869591 0  0.5060729154966499 -0.3475227845833823 0  -0.09281616240412746 -0.06197858250969457 0  0.7649739583333334 0.6673177083333334 0  0.7628906249999999 0.890234375 0  -0.2666864184909611 0.2585504071132311 0  0.3635064892129658 0.3878003602709461 0  -0.2339409722222222 0.8901937905844155 0  -0.1718792125974916 -0.8957733325456778 0  0.1001768566329531 0.4023510017391879 0  0.3120260172693757 -0.4540546875576884 0  0.7804062804433681 0.1896628610854537 0  0.4087715451998049 0.187961780041608 0  -0.1584963477271457 0.5451611892421655 0  -0.8926817849258324 0.463022006336401 0  0.2338091473445219 -0.07576267331277289 0  0.08171112182813692 -0.2349087687359925 0  0.04635385178956847 -0.1044635073718474 0  -0.4377391632114205 -0.6448874471423088 0  -0.1907678351227189 0.6480215912813945 0  0.300605946475244 0.4741444604171038 0  -0.2145033720757486 -0.06751709909419711 0  0.6069191921170397 -0.005492331448357812 0  0.0214718770761248 0.6032397936031719 0  0.5476675683364878 0.8992752415326501 0  0.4387475014316537 0.9093708953002239 0  -0.4932997685306436 -0.4381009159993523 0  0.2515197695339056 -0.1791673369138964 0  -0.7291666666666667 -0.6088789682539681 0  -0.9166666666666667 -0.6875 0  0.620579540363709 -0.2122431523583302 0  -0.484950136419973 0.6719440339397442 0  0.2857044415400258 0.0137589173127316 0  -0.8945708364098356 -0.288306105327986 0  0.4043102720140535 0.7842914560451557 0  0.04123256238752064 -0.9026968245801402 0  0.2003676884403109 -0.9091888601740487 0  0.1068775558538842 -0.7373377130403223 0  -0.4804566783514427 -0.1763307203045643 0  0.108286342087769 -0.3993789328997278 0  -0.191883080105361 -0.3640821726430649 0  -0.07025064492006244 0.2984876656890053 0  -0.7039324641409584 0.788312126296613 0  -0.7311286585775438 0.8932502354831682 0  0.5171409396884947 0.1503852691889257 0  0.4229392823658633 -0.003216522184234835 0  -0.5621736087218259 -0.919558629836806 0  -0.626474064879544 -0.7266572613636506 0  0.2446828746617422 0.2867616783302419 0  0.1759429608742923 0.4776611759306416 0  -0.3468240303741654 -0.5260416435617549 0  -0.7465808808425306 0.4069574477998361 0  -0.7819962170660292 0.2802441065650652 0  -0.3742623214119594 -0.8547800509641984 0  0.1014498009713561 0.8506721983266377 0  0.4285217620918213 -0.5230190595570253 0  0.4091738370487775 -0.6256346204225141 0  0.78125 0.46875 0  0.90625 0.53125 0  -0.4791801348852565 0.2553992655702126 0  0.7843318610782772 -0.7086046956885941 0  0.8909728264971901 -0.7355183796514634 0  0.7041908166528879 -0.7830649143180282 0  0.731182135
[...]
<PointData  Vectors="f_21"> 
<DataArray  type="Float64"  Name="f_21"  NumberOfComponents="3" format="ascii">-5.8001865019815698e-06 -1.5681250043272520e-05 0.0000000000000000e+00  -5.8001865019815698e-06 -1.5681250043272520e-05 0.0000000000000000e+00  -5.8001865019815698e-06 -1.5681250043272520e-05 0.0000000000000000e+00  -5.8001865019815698e-06 -1.5681250043272520e-05 0.0000000000000000e+00  3.3465416975578055e-06 -2.4326598907266602e-05 0.0000000000000000e+00  2.6533684380632102e-06 -4.0514772433388265e-06 0.0000000000000000e+00  3.3465416975578055e-06 -2.4326598907266602e-05 0.0000000000000000e+00  2.6533684380632102e-06 -4.0514772433388265e-06 0.0000000000000000e+00  -1.3889340478732224e-05 3.4047330532738327e-05 0.0000000000000000e+00  -1.6883796946720242e-01 -8.9972789648983231e-06 0.0000000000000000e+00  -1.6170910577602576e-06 1.6884593102991960e-01 0.0000000000000000e+00  -1.6170910577602576e-06 1.6884593102991960e-01 0.0000000000000000e+00  1.6886575214283664e-01 1.3633971099851530e-06 0.0000000000000000e+00  -1.6883796946720242e-01 -8.9972789648983231e-06 0.0000000000000000e+00  -7.9279780336749069e-06 -1.6882957234697812e-01 0.0000000000000000e+00  1.6886575214283664e-01 1.3633971099851530e-06 0.0000000000000000e+00  -7.9279780336749069e-06 -1.6882957234697812e-01 0.0000000000000000e+00  4.2220165132890196e-02 4.2205505489065070e-02 0.0000000000000000e+00  -4.2231974372022363e-02 -4.2210269799496880e-02 0.0000000000000000e+00  1.1938037619913812e-01 8.7994587252963602e-06 0.0000000000000000e+00  -6.4054120879322352e-07 1.1939750889460743e-01 0.0000000000000000e+00  1.6158745029948860e-03 -1.6469517678974341e-01 0.0000000000000000e+00  -1.6433227816118318e-01 -8.8473385996606175e-04 0.0000000000000000e+00  -5.9687294893126373e-02 5.9691990117184769e-02 0.0000000000000000e+00  5.9681257797688007e-02 -5.9695527761266978e-02 0.0000000000000000e+00  -8.1208941146982863e-02 8.7511275904546479e-02 0.0000000000000000e+00  6.3558417440212303e-02 -1.0529072948536650e-01 0.0000000000000000e+00  -8.7525248755867341e-02 8.1197734719061276e-02 0.0000000000000000e+00  1.4556198374117371e-01 -2.2553715312949408e-02 0.0000000000000000e+00  -7.5725599175693270e-02 -7.5699329822972908e-02 0.0000000000000000e+00  7.5718488987384758e-02 7.5704739475176031e-02 0.0000000000000000e+00  1.6875784958266516e-02 1.4621852332570012e-01 0.0000000000000000e+00  -9.0096725310214412e-02 -7.3699670917061477e-02 0.0000000000000000e+00  -6.9855198948211378e-02 -9.3082769269509480e-02 0.0000000000000000e+00  1.4303613609959487e-01 5.7348279108737623e-03 0.0000000000000000e+00  -5.0100842732710732e-02 -1.1299047247943905e-01 0.0000000000000000e+00  4.4720090616490654e-02 -1.0360328262242943e-01 0.0000000000000000e+00  6.7868551728100829e-02 -9.2550562865373526e-02 0.0000000000000000e+00  -7.2938833947798737e-02 8.8708922922815459e-02 0.0000000000000000e+00  1.1029635949076538e-01 4.5694822297467096e-02 0.0000000000000000e+00  1.0364016202432004e-01 5.4342314926315152e-02 0.0000000000000000e+00  1.3791294674508592e-02 1.3257253457124626e-01 0.0000000000000000e+00  7.8578256775543020e-06 1.1939890660830733e-01 0.0000000000000000e+00  -1.1938395457508510e-01 8.3046821140050454e-06 0.0000000000000000e+00  1.1939712482175038e-01 -6.4792651205856704e-06 0.0000000000000000e+00  -9.0619996646299971e-06 -1.1938180299845705e-01 0.0000000000000000e+00  -1.6910111992753760e-02 -1.2033403979073880e-01 0.0000000000000000e+00  1.7995120668987792e-02 -8.2733922858616776e-02 0.0000000000000000e+00  -4.8955088261158887e-02 5.2694905544287502e-03 0.0000000000000000e+00  4.1981758051292692e-06 -1.1939241044457011e-01 0.0000000000000000e+00  -6.5538694369907437e-06 1.1939701542732546e-01 0.0000000000000000e+00  7.8578256775543020e-06 1.1939890660830733e-01 0.0000000000000000e+00  -9.0619996646299971e-06 -1.1938180299845705e-01 0.0000000000000000e+00  -1.1937388400071189e-01 -8.2390398019460664e-06 0.0000000000000000e+00  1.1938696947263461e-01 5.7156545305398134e-06 0.0000000000000000e+00  -1.1937388400071189e-01 -8.2390398019460664e-06 0.0000000000000000e+00  -6.5538694369907437e-06 1.1939701542732546e-01 0.0000000000000000e+00  -1.1938395457508510e-01 8.3046821140050454e-06 0.0000000000000000e+00  1.1939712482175038e-01 -6.4792651205856704e-06 0.0000000000000000e+00  4.1981758051292692e-06 -1.1939241044457011e-01 0.0000000000000000e+00  1.1938696947263461e-01 5.7156545305398134e-06 0.0000000000000000e+00  3.4292836622227194e-02 1.1744761129721004e-01 0.0000000000000000e+00  -1.1398907788940420e-01 -2.4809919221513828e-02 0.0000000000000000e+00  -1.3887461766925854e-01 -2.8564984648119119e-02 0.0000000000000000e+00  7.6643638765439684e-02 -2.7626888220524774e-02 0.0000000000000000e+00  -1.7366314477114280e-03 -1.4928516051391427e-01 0.0000000000000000e+00  -9.2087374960355423e-03 1.2802455211903080e-01 0.0000000000000000e+00  -7.1075857256784322e-02 2.2055251257456290e-02 0.0000000000000000e+00  -5.5507602299542796e-03 1.3120677402637515e-01 0.0000000000000000e+00  -1.0894430240215774e-01 -9.0944967574289090e-04 0.0000000000000000e+00  6.9342516577814761e-02 6.8046645602686903e-02 0.0000000000000000e+00  1.3374516212631402e-01 1.8417317181235616e-02 0.0000000000000000e+00  -1.4999997904358703e-01 1.7346040306731991e-02 0.0000000000000000e+00  1.3393427810762207e-01 -3.4287228679813139e-02 0.0000000000000000e+00  -1.3507777613728267e-01 3.2295586514694698e-02 0.0000000000000000e+00  -2.6001609788284020e-02 1.3718595908825279e-01 0.0000000000000000e+00  2.7974010138661031e-02 1.8236625688120612e-02 0.0000000000000000e+00  1.3768166987100547e-01 -1.8279678877762880e-02 0.0000000000000000e+00  8.2794162276230363e-02 -8.2803600198331592e-02 0.0000000000000000e+00  2.9307553146604706e-03 -1.3488579795542491e-01 0.0000000000000000e+00  7.5896744050423626e-02 -5.6447962887856105e-02 0.0000000000000000e+00  -7.6728719363372180e-02 7.6729937520486999e-02 0.0000000000000000e+00  1.5841612565440091e-01 1.0393083755171133e-02 0.0000000000000000e+00  7.2119991356488743e-04 1.6674301909748684e-01 0.0000000000000000e+00  7.8318819949353941e-02 8.6697700684818038e-02 0.0000000000000000e+00  -6.1607642682244791e-03 -4.6995838467363403e-02 0.0000000000000000e+00  -2.7783280129843175e-02 -1.4082501542569034e-01 0.0000000000000000e+00  -7.7302873611018286e-02 -7.7291962056838526e-02 0.0000000000000000e+00  1.0231272884405286e-02 3.8791078376877966e-02 0.0000000000000000e+00  1.4083730085507445e-01 2.7776679707923878e-02 0.0000000000000000e+00  7.7256363333097017e-02 7.7552598478105778e-02 0.0000000000000000e+00  -1.4082546645550692e-01 -2.7763948602300546e-02 0.0000000000000000e+00  -1.1106985110062366e-01 1.7351048843973177e-02 0.0000000000000000e+00  -1.4149993372113151e-01 1.5592714347973382e-02 0.0000000000000000e+00  4.3141557700240030e-02 2.6539437832152075e-02 0.0000000000000000e+00  -5.9215526946070546e-02 6.2380130832987948e-02 0.0000000000000000e+00  -6.2387710095514338e-02 5.9228190853475221e-02 0.0000000000000000e+00  5.9238475327344546e-02 -6.2257455206883909e-02 0.0000000000000000e+00  5.9269461032946509e-02 6.2099851096749155e-02 0.0000000000000000e+00  2.5456668545198891e-02 1.4337990671914749e-01 0.0000000000000000e+00  -1.1756228948188974e-01 3.9035375421789940e-02 0.0000000000000000e+00  -1.1854536392935722e-01 -2.4078861963971385e-02 0.0000000000000000e+00  -9.1749883634419712e-03 8.7170421755607991e-02 0.0000000000000000e+00  8.6625277193959946e-02 -2.8930600205672931e-02 0.0000000000000000e+00  -1.1113245119203591e-01 -7.3074176168189701e-03 0.0000000000000000e+00  -1.5597372858637870e-01 -4.5833837473735505e-06 0.0000000000000000e+00  -2.6371479029172928e-02 -1.2824878680928034e-01 0.0000000000000000e+00  5.4862688638747360e-02 1.1247477296093787e-01 0.0000000000000000e+00  4.9337016292904770e-06 -1.5600858156667360e-01 0.0000000000000000e+00  3.0320771337762641e-02 -9.7356414457083304e-02 0.0000000000000000e+00  -6.4605624105950735e-02 -5.8711335166382713e-07 0.0000000000000000e+00  -8.2935552235392881e-02 -6.5556554350858498e-02 0.0000000000000000e+00  7.0183063608076097e-03 -1.4054862320773776e-01 0.0000000000000000e+00  8.9718034075334671e-02 -6.6580011959297761e-02 0.0000000000000000e+00  1.5460244827618663e-01 -1.3519354102202645e-02 0.0000000000000000e+00  8.2686004351924178e-02 -2.3144323105047517e-02 0.0000000000000000e+00  -2.5625290693030125e-02 1.4221400827357839e-01 0.0000000000000000e+00  -1.6985711164137364e-02 -7.1381584110949997e-02 0.0000000000000000e+00  -2.2081452730478481e-02 1.4425201818672245e-01 0.0000000000000000e+00  6.7470733028573079e-03 -1.5831914531220004e-01 0.0000000000000000e+00  -3.1995124197853705e-02 1.3627359017710625e-01 0.0000000000000000e+00  9.9859976401983989e-07 -1.5601808590941513e-01 0.0000000000000000e+00  -1.2540846080700881e-02 -8.1148790967837919e-02 0.0000000000000000e+00  1.6675900604374336e-01 1.4737514140409024e-03 0.0000000000000000e+00  6.4606373227909020e-02 5.5368441643985821e-06 0.0000000000000000e+00  -5.3923254282783238e-02 7.0921645594464761e-02 0.0000000000000000e+00  -4.6584359733964159e-02 -1.0602162737106152e-01 0.0000000000000000e+00  -5.0524109593466655e-02 -5.1885481285723914e-02 0.0000000000000000e+00  1.3750668610784744e-06 -6.4618101349241341e-02 0.0000000000000000e+00  -6.3513234195033560e-02 -8.8211871323788410e-02 0.0000000000000000e+00  4.9666427948274701e-02 -1.1581817068108649e-01 0.0000000000000000e+00  7.9597477719067125e-02 5.7136529633751765e-02 0.0000000000000000e+00  -6.0253956378843891e-02 9.5739220998344296e-02 0.0000000000000000e+00  6.2916252007076722e-03 -1.5012109398701487e-01 0.0000000000000000e+00  9.9349630938204939e-02 -6.8439529772127236e-02 0.0000000000000000e+00  -1.5615391838002401e-01 -9.4328745781506137e-04 0.0000000000000000e+00  -1.4172513566578385e-01 -2.5698072696365256e-02 0.0000000000000000e+00  -1.2559258975956511e-01 3.7772532779205781e-02 0.0000000000000000e+00  3.7974640989350966e-02 -1.2547900170570156e-01 0.0000000000000000e+00  5.0874858841053465e-02 1.1372222757983266e-01 0.0000000000000000e+00  1.2042328931927132e-01 -1.7843570714230505e-03 0.0000000000000000e+00  -3.7902202028122241e-06 6.4602346455811796e-02 0.0000000000000000e+00  6.4705841442928569e-02 2.9148737719715094e-02 0.0000000000000000e+00  1.5297118833907378e-01 1.2616109589832603e-02 0.0000000000000000e+00  1.1405260875112598e-01 4.9071739301807936e-02 0.0000000000000000e+00  1.8585538000537656e-06 -6.4595082539882553e-02 0.0000000000000000e+00  -1.0154661892339240e-01 -5.6552815540158452e-02 0.0000000000000000e+00  -3.3501691277522401e-02 -1.3468614601857548e-01 0.0000000000000000e+00  1.3187665192385178e-01 -5.0838654457435826e-05 0.0000000000000000e+00  -1.1388641872176029e-01 -2.0625076728509422e-02 0.0000000000000000e+00  1.2281692190193111e-01 4.5186620936179568e-02 0.0000000000000000e+00  -8.7030092687700247e-02 7.9154321335433681e-02 0.0000000000000000e+00  7.1109032120385038e-06 1.5599247250213266e-01 0.0000000000000000e+00  3.4116997979376798e-02 -1.3470035325032531e-01 0.0000000000000000e+00  1.2026391251715177e-01 -4.2178841595922292e-02 0.0000000000000000e+00  -5.6779884290294166e-02 3.6779598213342188e-02 0.0000000000000000e+00  -4.9863038369831310e-02 8.6270402959904222e-02 0.0000000000000000e+00  -2.1207502065949822e-02 -1.1395035776463033e-01 0.0000000000000000e+00  4.9337016292904770e-06 -1.5600858156667360e-01 0.0000000000000000e+00  2.3976614491133582e-03 1.6271157737332090e-01 0.0000000000000000e+00  1.3142784886931475e-01 -3.4198027050602639e-02 0.0000000000000000e+00  -1.6594518480055284e-01 -2.9452041732040820e-04 0.0000000000000000e+00  -1.4208463372395916e-01 -2.6678454067678749e-02 0.0000000000000000e+00  -1.2736629311436701e-01 3.8349048884999105e-02 0.0000000000000000e+00  -9.4103516026369988e-02 -5.4364455510297428e-02 0.0000000000000000e+00  5.7702511614502342e-06 6.4591238810399632e-02 0.0000000000000000e+00  6.4606373227909020e-02 5.5368441643985821e-06 0.0000000000000000e+00  -6.4635693422949170e-02 6.7156852162130691e-06 0.0000000000000000e+00  1.8585538000537656e-06 -6.4595082539882553e-02 0.0000000000000000e+00  -2.9921292775715700e-03 -6.7585141438665425e-02 0.0000000000000000e+00  3.0859114164520002e-02 -1.1698246806084352e-01 0.0000000000000000e+00  -5.4861251753092193e-02 -1.1257701083308509e-01 0.0000000000000000e+00  -1.0844733947377682e-02 1.0359841001118805e-01 0.0000000000000000e+00  5.6987877733210108e-03 1.5473895737419099e-01 0.0000000000000000e+00  -1.3046018892928349e-02 6.3070976700531731e-02 0.0000000000000000e+00  5.7702511614502342e-06 6.4591238810399632e-02 0.0000000000000000e+00  -6.4635693422949170e-02 6.7156852162130691e-06 0.0000000000000000e+00  9.5971750047808779e-02 -6.8335847010934708e-03 0.0000000000000000e+00  6.3383056941975283e-02 -3.4172667059341633e-02 0.0000000000000000e+00  1.2467763996399855e-01 4.1328900553011742e-02 0.0000000000000000e+00  -1.6928521749522338e-02 -1.5119998511951313e-01 0.0000000000000000e+00  -5.5335090978876362e-03 -1.6248259707074747e-01 0.0000000000000000e+00  -6.3739179109691721e-02 -4.0880512439980400e-02 0.0000000000000000e+00  -6.6469909091244117e-02 -1.8729231962127926e-03 0.0000000000000000e+00  -5.9100454301729184e-06 6.4678293495853426e-02 0.0000000000000000e+00  7.1109032120385038e-06 1.5599247250213266e-01 0.0000000000000000e+00  -1.0413794266317661e-05 1.5599619196954090e-01 0.0000000000000000e+00  6.4603556879063939e-02 5.4782298170668160e-06 0.0000000000000000e+00  -3.7902202028122241e-06 6.4602346455811796e-02 0.0000000000000000e+00  -1.5597372858637870e-01 -4.5833837473735505e-06 0.0000000000000000e+00  -6.4605624105950735e-02 -5.8711335166382713e-07 0.0000000000000000e+00  -1.5598159132243408e-01 -6.2601259501567527e-06 0.0000000000000000e+00  9.9859976401983989e-07 -1.5601808590941513e-01 0.0000000000000000e+00  1.3750668610784744e-06 -6.4618101349241341e-02 0.0000000000000000e+00  -1.0413794266317661e-05 1.5599619196954090e-01 0.0000000000000000e+00  -1.5598159132243408e-01 -6.2601259501567527e-06 0.0000000000000000e+00  6.4603556879063939e-02 5.4782298170668160e-06 0.0000000000000000e+00  1.5597973732208209e-01 1.0480978482410834e-06 0.0000000000000000e+00  1.5599977294599968e-01 2.5333971239173443e-06 0.0000000000000000e+00  1.5597973732208209e-01 1.0480978482410834e-06 0.0000000000000000e+00  1.5599977294599968e-01 2.5333971239173443e-06 0.0000000000000000e+00  5.9176210288914961e-02 7.7125093802507289e-02 0.0000000000000000e+00  -1.1511600615040878e-01 2.4281936022585274e-02 0.0000000000000000e+00  1.0982357737762717e-01 -4.5319105715048463e-02 0.0000000000000000e+00  6.0851728400983580e-02 -6.0847854717879006e-02 0.0000000000000000e+00  8.0048178758128544e-02 -7.2666936977922758e-02 0.0000000000000000e+00  1.8518119434232969e-02 -4.5280328889064782e-02 0.0000000000000000e+00  8.9169512511316773e-02 2.5570011848728712e-02 0.0000000000000000e+00  -3.7621708851684331e-02 1.2480095403377010e-01 0.0000000000000000e+00  -1.5646860421186043e-01 2.1084969996966849e-03 0.0000000000000000e+00  -5.8912988732542235e-02 1.5155280917253313e-02 0.0000000000000000e+00  2.0019135956189388e-02 1.4880707512018690e-01 0.0000000000000000e+00  3.2438279678617933e-02 1.3090280841371785e-01 0.0000000000000000e+00  -2.6229511748640327e-02 1.1271634110302366e-01 0.0000000000000000e+00  -6.9806931059853916e-02 -4.4673337981742688e-02 0.0000000000000000e+00  -3.6254354427075315e-02 7.4364869352962770e-03 0.0000000000000000e+00  -6.3497234845296208e-02 -3.5666567163632194e-02 0.0000000000000000e+00  1.3303517310131147e-01 -1.9611968667669677e-02 0.0000000000000000e+00  4.2441892981189513e-02 -1.0873837817638188e-01 0.0000000000000000e+00  4.1952136742307987e-02 9.2774375040019078e-02 0.0000000000000000e+00  3.2625164547358337e-02 1.1739019299826428e-01 0.0000000000000000e+00  -1.0171156174162441e-01 5.0405152194912664e-02 0.0000000000000000e+00  -1.1772794303984072e-02 1.5124735851711551e-02 0.0000000000000000e+00  1.8980306440224551e-03 1.5781114664176199e-01 0.0000000000000000e+00  5.5703234274876411e-03 -1.8847630913655093e-02 0.0000000000000000e+00  -4.9388627281330047e-02 1.1084117860536080e-01 0.0000000000000000e+00  -1.0372073722171539e-01 -6.4294831315405546e-02 0.0000000000000000e+00  2.6386931113082900e-02 -1.4067954321181925e-01 0.0000000000000000e+00  -2.8174600302196911e-02 -1.3980461024923291e-01 0.0000000000000000e+00  7.4946570378422533e-02 9.1044819998068169e-02 0.0000000000000000e+00  -2.8549482675239097e-03 7.7795836696790979e-02 0.0000000000000000e+00  3.1287062566014760e-02 -4.7629030975504222e-02 0.0000000000000000e+00  1.0800278519052282e-01 -5.7026491938237597e-02 0.0000000000000000e+00  4.1956157837594599e-02 -1.0773311596907231e-01 0.0000000000000000e+00  -8.2002843400615338e-02 -8.6306891242686326e-02 0.0000000000000000e+00  -6.5880460477386507e-02 5.3018379442778429e-02 0.0000000000000000e+00  -4.2362455306772760e-02 1.0653772390061152e-01 0.0000000000000000e+00  4.6568512739174693e-02 8.2181844354587141e-02 0.0000000000000000e+00  -1.5303507226934032e-01 1.5800587687312038e-02 0.0000000000000000e+00  9.3046422597971690e-02 2.0141434322520947e-02 0.0000000000000000e+00  7.3075804076082260e-02 8.8943189856488386e-02 0.0000000000000000e+00  -2.6551503604990690e-02 1.3454202203451229e-01 0.0000000000000000e+00  -1.4684785415370705e-01 1.1414750371179012e-02 0.0000000000000000e+00  1.5827098594040809e-01 -6.4864875459819671e-03 0.0000000000000000e+00  2.9552258474162981e-02 1.0996195409851338e-01 0.0000000000000000e+00  1.0987217999012350e-01 3.1708976047335059e-02 0.0000000000000000e+00  5.3848823911296022e-02 2.3188981851840720e-02 0.0000000000000000e+00  2.9478606514721173e-02 7.2809315993710128e-02 0.0000000000000000e+00  -1.2461766012165540e-01 4.2720263412005979e-02 0.0000000000000000e+00  -9.8645465649994712e-02 1.1093580315218817e-02 0.0000000000000000e+00  2.7765988900899468e-02 -1.0299353084104858e-01 0.0000000000000000e+00  -9.7858431271688950e-04 1.5938419178212257e-01 0.0000000000000000e+00  -1.5967049462063312e-01 -3.6303135279541557e-03 0.0000000000000000e+00  7.8383340509192625e-03 -1.5866735682315947e-01 0.0000000000000000e+00  -9.0766821355021191e-03 -1.5905191944848435e-01 0.0000000000000000e+00  3.4937342522951866e-03 -3.2627013259894290e-02 0.0000000000000000e+00  6.3407206106674802e-02 1.0144979047351911e-01 0.0000000000000000e+00  -1.0487005178961507e-01 4.2576847198485826e-02 0.0000000000000000e+00  -1.3561259756012944e-01 2.4278773235747796e-02 0.0000000000000000e+00  -3.8623673264409540e-02 1.2326580755266267e-01 0.0000000000000000e+00  -6.8427785307245519e-03 8.6733968964138333e-02 0.0000000000000000e+00  -4.5506770646480503e-03 1.3188125476361184e-01 0.0000000000000000e+00  -1.2563354170191829e-01 -3.3895271693191238e-02 0.0000000000000000e+00  -3.1350423942966762e-02 -1.2564394574150695e-01 0.0000000000000000e+00  5.0378745529602670e-02 -2.0781759990653643e-02 0.0000000000000000e+00  3.8422629331461247e-02 -9.5379758832177017e-02 0.0000000000000000e+00  1.1712632878336637e-01 -3.7735848626753901e-02 0.0000000000000000e+00  5.4640373046688142e-03 -1.4333669389364467e-01 0.0000000000000000e+00  1.5126354679274390e-01 1.7507243965319223e-02 0.0000000000000000e+00  1.2658327899292740e-01 -3.9644964715477141e-02 0.0000000000000000e+00  -1.3282017875530855e-01 -2.1855038681387995e-02 0.0000000000000000e+00  6.2284302442752709e-02 1.0650640608659058e-01 0.0000000000000000e+00  3.6902246501444358e-02 1.1920919672692462e-01 0.0000000000000000e+00  4.1443496524165664e-03 1.5013327037305590e-01 0.0000000000000000e+00  4.1700355618436310e-04 1.6390082731614844e-01 0.0000000000000000e+00  -8.1826290312087303e-03 1.6036725004911415e-01 0.0000000000000000e+00  -4.9448600715574970e-02 1.0173283516784512e-01 0.0000000000000000e+00  -9.5128535560068200e-02 7.2884014042042630e-02 0.0000000000000000e+00  -1.4333772676119902e-01 6.2172434814254402e-03 0.0000000000000000e+00  7.7884138534034961e-02 1.2226487872848283e-02 0.0000000000000000e+00  1.130926236360931