<?xml version="1.0"?>
<VTKFile type="UnstructuredGrid"  version="0.1"  >
<UnstructuredGrid>
<Piece  NumberOfPoints="5315" NumberOfCells="10372">
<Points>
<DataArray  type="Float64"  NumberOfComponents="3"  format="ascii">-1 -1 0  1 -1 0  1 1 0  -1 1 0  0 -1 0  1 0 0  0 1 0  -1 0 0  0 0 0  -1 -0.5 0  -0.5 -1 0  -0.5 1 0  -1 0.5 0  1 -0.5 0  0.5 -1 0  1 0.5 0  0.5 1 0  0.4166666666666666 -0.4166666666666667 0  -0.4166666666666667 0.4166666666666667 0  -0.25 -0.5 0  0.5 0.25 0  -0.4861111111111112 -0.06944444444444445 0  0.0732758620689655 0.507183908045977 0  -0.625 -0.625 0  0.625 0.625 0  0.7380952380952381 -0.25 0  -0.7099116161616161 0.2105429292929293 0  -0.25 0.7380952380952381 0  0.105392156862745 -0.6348039215686275 0  0.6770833333333334 -0.6770833333333333 0  -0.6770833333333334 0.6770833333333334 0  0.3472222222222222 -0.06944444444444446 0  -0.7264957264957265 -0.3044871794871795 0  0.3141940982507127 0.7297313660835709 0  0.02049587951122483 -0.3227479397556124 0  -0.2690972222222223 0.1475694444444444 0  0.3859500089908372 -0.7274430156831472 0  -0.2228477945123298 -0.1761765495248019 0  0.2182539682539683 0.1884920634920635 0  0.75 0.375 0  -0.145442219440968 -0.7602211097204841 0  0.7088913690476191 0.0427827380952381 0  -0.75 -1 0  -1 -0.75 0  1 0.75 0  0.75 1 0  -0.7439982703698937 -0.04614153195464455 0  -0.4609235096577606 -0.3356498099556895 0  0.4063134471431929 0.4895621842856023 0  0.25 -1 0  -0.25 -1 0  -0.75 1 0  0.75 -1 0  -1 -0.25 0  -1 0.25 0  1 -0.25 0  -0.25 1 0  1 -0.75 0  -1 0.75 0  0.25 1 0  1 0.25 0  -0.4041423272138783 -0.7597141090712928 0  0.06500839607911253 0.7578103030529481 0  -0.1572801182352047 0.3838997021864289 0  -0.6528005242053915 0.4409494757946086 0  -0.4930160984848485 0.1544744318181818 0  -0.4732142857142858 0.7752976190476191 0  0.6398809523809523 -0.4538690476190476 0  0.5166054117396399 -0.2161233620965164 0  -0.002273787244753427 0.2232363985975174 0  0.1500564496765022 -0.1524955293952667 0  0.2016720420046758 -0.4410343282803009 0  -0.08495178036419618 0.6274139771124571 0  -0.8367311471133162 0.3642591720794645 0  -0.8333333333333334 -0.625 0  -0.594323836800685 -0.8231079456002283 0  -0.4466957714776065 -0.5349126855671806 0  0.8125 0.5625 0  0.78125 0.78125 0  0.5091392650016769 0.7947130883338923 0  0.125 -0.8382681931833136 0  -0.8184523809523809 -0.8184523809523809 0  -0.07781530426104531 -0.5819319697006881 0  0.5085055196703295 0.04967610411902112 0  0.2918471072074933 -0.276017202318847 0  0.5120763537765269 -0.5898771553229597 0  0.625 -0.8585349462365591 0  0.8158532234335381 -0.8158532234335381 0  -0.5198088446315396 0.5739411553684605 0  -0.8585349462365591 0.625 0  -0.8150493805516597 0.8156205699829586 0  0.8585349462365591 -0.625 0  -0.2688268348649726 0.5439331383603209 0  0.8242100426758139 -0.4436043596336612 0  0.5833756314287952 0.4479378157143976 0  0.8690476190476191 -0.125 0  -0.125 0.8690476190476191 0  -0.8692745600729823 0.125 0  0.8696725120759167 0.125 0  -0.625 0.8711516477451908 0  0.2339522463269718 0.3879558377955778 0  0.2453709502295031 0.5655822922838026 0  0.1730610651637797 0.02021709580868947 0  0.3245402594056757 -0.5644672020485209 0  -0.7291666666666666 -0.4816595441595442 0  -1 -0.375 0  -0.5811140848639904 -0.2127276307675001 0  0.673332592838314 0.2158348143233718 0  0.375 1 0  -0.5714768890989919 0.2985103444040069 0  -1 -0.125 0  -0.8453692574786325 -0.1875 0  -0.3144549134065865 -0.02408675326008025 0  -0.2898414972096258 -0.3336092734780093 0  -0.1075052092206287 -0.4224330421314983 0  -0.05043970703604117 -0.1652278959397459 0  0.6459672950297897 -0.1113415301525317 0  0.4645210271029513 0.6398480556579343 0  0.3512863754411909 0.0937979496253573 0  -0.6063160985568274 0.03891469652249891 0  -0.3428819444444445 0.8690476190476191 0  0.625 1 0  -0.1602164796159982 0.02697860906625157 0  0.04648110064133829 -0.4808416424239687 0  1 0.875 0  -0.3836102479201657 0.6484936449177356 0  -0.3776011723096096 0.263078478984336 0  -0.6024978259969829 -0.3949628096211138 0  0.125 1 0  0.2010781308272777 0.8456221018461906 0  0.2822509696388829 -0.845902544691141 0  -0.3285533674953515 -0.6289773550938936 0  0.3461306793221754 0.278777492464833 0  0.4737475672408696 -0.8508448959534423 0  0.2384632828836344 -0.7029523187242811 0  -0.004777287059791593 0.3759269695907358 0  -0.8499735021850066 -0.3912320205328522 0  0.1222536293721587 0.2963971539625205 0  -0.3769456520999688 -0.203572526805711 0  -0.2749617205755651 -0.8464290792698902 0  0.004805888512766143 -0.747174355248311 0  -0.125 -1 0  -0.06001061822252458 -0.8724007765244854 0  0.875 0.4375 0  0.854421179608893 0.271342359217786 0  0.875 1 0  -0.1499861095763589 0.2358309656934888 0  0.3381943639137225 0.8663061796405532 0  -0.7853090110442228 0.4998412775277108 0  0.7398165998560814 -0.5535192694951373 0  0.1580042122341573 -0.3100246140259917 0  -0.7291666666666667 -0.7142857142857142 0  -0.375 -1 0  0.6483368386154684 0.8514905990110488 0  -0.1295370103291928 -0.2826118305021242 0  0.07458201853700455 0.1123894386563915 0  0.6146465857036327 -0.3161203659316075 0  0.5551898493894731 -0.740296118159085 0  0.375 -1 0  0.482702798370208 -0.084133350091034 0  0.87890625 0.68359375 0  -0.05917195534525846 0.4971092425697621 0  0.1260710309213975 0.6343750312956699 0  0.8690476190476191 -0.3077066815262848 0  -0.2912010232560567 0.3668168386732139 0  -0.875 1 0  -1 0.875 0  1 -0.875 0  0.875 -1 0  -0.8689564281364567 -0.006189266075306407 0  -0.7449425635110547 0.08458938160051771 0  -0.7150266761936593 -0.1739444581417552 0  -0.5260034831318311 -0.711099823962112 0  -0.4724626808827322 -0.871722230709409 0  0.4734436795977052 0.377714794132168 0  -0.875 -1 0  -1 -0.875 0  0.6927189078571988 0.5156567235715964 0  -0.3742497615796874 -0.4296005251260107 0  -0.1969436423297711 -0.6387157229772615 0  -0.6179496409766825 -0.08933356056510935 0  -0.424405057115988 0.04452428810878029 0  -0.08479048335844169 0.1279607007132633 0  0.003830300099055113 0.8712085230656206 0  0.8748778838820267 -1.379218479898026e-05 0  -0.375 1 0  -0.625 1 0  1 0.125 0  -0.125 1 0  1 -0.375 0  1 -0.125 0  1 -0.625 0  0.625 -1 0  0.125 -1 0  -0.625 -1 0  -1 -0.625 0  -1 0.125 0  -1 0.375 0  -1 0.625 0  1 0.375 0  1 0.625 0  0.6325660748712082 0.3335187599557389 0  -0.06420945895056573 0.7549874027425891 0  -0.8769015540914771 0.2478802253893416 0  0.871875 0.871875 0  -0.6868091492840067 0.3270978624973681 0  -0.5363597469565949 0.412994850055505 0  -0.6803734992638302 0.5574295000651103 0  -0.7076253581162534 -0.8803439094224437 0  -0.8778089002295137 -0.5106896447504627 0  -0.3860184984222981 0.530566778071246 0  0.6109900617121508 0.1128453077697081 0  0.3896945134930274 -0.1915382873255086 0  0.7605656944697778 -0.06822134873122943 0  0.3576151269893478 0.5948388411612135 0  -0.5689902680792265 -0.5143596830118065 0  0.6262446286847614 -0.5735657901943212 0  0.2030558252325225 -0.5625263842513452 0  0.6123273142928579 0.7407533260723429 0  0.4016460890123554 -0.3042863223111857 0  -0.59039693199147 0.7578418819188018 0  0.7276932493917544 -0.3705808024528924 0  0.5222536818742854 -0.4713886230400014 0  -0.5101986527137737 0.8848365765607674 0  0.510560172809238 0.5356013299918891 0  -0.3603569195756083 0.75823710606415 0  0.1967279277813232 0.728226870058472 0  -0.6086880986371127 0.1545624071548516 0  -0.38105366729386 0.1511189987807864 0  -0.2944659463671584 -0.7359061804869591 0  0.5060729154966499 -0.3475227845833823 0  -0.09281616240412746 -0.06197858250969457 0  0.7649739583333334 0.6673177083333334 0  0.7628906249999999 0.890234375 0  -0.2666864184909611 0.2585504071132311 0  0.3635064892129658 0.3878003602709461 0  -0.2339409722222222 0.8901937905844155 0  -0.1718792125974916 -0.8957733325456778 0  0.1001768566329531 0.4023510017391879 0  0.3120260172693757 -0.4540546875576884 0  0.7804062804433681 0.1896628610854537 0  0.4087715451998049 0.187961780041608 0  -0.1584963477271457 0.5451611892421655 0  -0.8926817849258324 0.463022006336401 0  0.2338091473445219 -0.07576267331277289 0  0.08171112182813692 -0.2349087687359925 0  0.04635385178956847 -0.1044635073718474 0  -0.4377391632114205 -0.6448874471423088 0  -0.1907678351227189 0.6480215912813945 0  0.300605946475244 0.4741444604171038 0  -0.2145033720757486 -0.06751709909419711 0  0.6069191921170397 -0.005492331448357812 0  0.0214718770761248 0.6032397936031719 0  0.5476675683364878 0.8992752415326501 0  0.4387475014316537 0.9093708953002239 0  -0.4932997685306436 -0.4381009159993523 0  0.2515197695339056 -0.1791673369138964 0  -0.7291666666666667 -0.6088789682539681 0  -0.9166666666666667 -0.6875 0  0.620579540363709 -0.2122431523583302 0  -0.484950136419973 0.6719440339397442 0  0.2857044415400258 0.0137589173127316 0  -0.8945708364098356 -0.288306105327986 0  0.4043102720140535 0.7842914560451557 0  0.04123256238752064 -0.9026968245801402 0  0.2003676884403109 -0.9091888601740487 0  0.1068775558538842 -0.7373377130403223 0  -0.4804566783514427 -0.1763307203045643 0  0.108286342087769 -0.3993789328997278 0  -0.191883080105361 -0.3640821726430649 0  -0.07025064492006244 0.2984876656890053 0  -0.7039324641409584 0.788312126296613 0  -0.7311286585775438 0.8932502354831682 0  0.5171409396884947 0.1503852691889257 0  0.4229392823658633 -0.003216522184234835 0  -0.5621736087218259 -0.919558629836806 0  -0.626474064879544 -0.7266572613636506 0  0.2446828746617422 0.2867616783302419 0  0.1759429608742923 0.4776611759306416 0  -0.3468240303741654 -0.5260416435617549 0  -0.7465808808425306 0.4069574477998361 0  -0.7819962170660292 0.2802441065650652 0  -0.3742623214119594 -0.8547800509641984 0  0.1014498009713561 0.8506721983266377 0  0.4285217620918213 -0.5230190595570253 0  0.4091738370487775 -0.6256346204225141 0  0.78125 0.46875 0  0.90625 0.53125 0  -0.4791801348852565 0.2553992655702126 0  0.7843318610782772 -0.7086046956885941 0  0.8909728264971901 -0.7355183796514634 0  0.7041908166528879 -0.7830649143180282 0  0.731182135
[...]
<PointData  Vectors="f_21"> 
<DataArray  type="Float64"  Name="f_21"  NumberOfComponents="3" format="ascii">-9.0676946225967289e-09 -4.1316054596471226e-08 0.0000000000000000e+00  -9.0676946225967289e-09 -4.1316054596471226e-08 0.0000000000000000e+00  -9.0676946225967289e-09 -4.1316054596471226e-08 0.0000000000000000e+00  -9.0676946225967289e-09 -4.1316054596471226e-08 0.0000000000000000e+00  -1.2838732488511567e-08 -4.8768176229969730e-08 0.0000000000000000e+00  -2.0963236351976964e-10 -4.0046441374021544e-08 0.0000000000000000e+00  -1.2838732488511567e-08 -4.8768176229969730e-08 0.0000000000000000e+00  -2.0963236351976964e-10 -4.0046441374021544e-08 0.0000000000000000e+00  -5.1251114128989729e-09 -4.6780528511042190e-08 0.0000000000000000e+00  -5.8295220775387625e-04 -3.9585304328602889e-08 0.0000000000000000e+00  -9.9525720056488783e-09 5.8290701765060940e-04 0.0000000000000000e+00  -9.9525720056488783e-09 5.8290701765060940e-04 0.0000000000000000e+00  5.8294295943572220e-04 -3.9689838214110945e-08 0.0000000000000000e+00  -5.8295220775387625e-04 -3.9585304328602889e-08 0.0000000000000000e+00  -9.8179924981858588e-09 -5.8299398995279332e-04 0.0000000000000000e+00  5.8294295943572220e-04 -3.9689838214110945e-08 0.0000000000000000e+00  -9.8179924981858588e-09 -5.8299398995279332e-04 0.0000000000000000e+00  1.4573472574115585e-04 1.4569170121060505e-04 0.0000000000000000e+00  -1.4574614991621704e-04 -1.4577732237830055e-04 0.0000000000000000e+00  4.1220497879163460e-04 -4.2782372695785697e-08 0.0000000000000000e+00  -2.9496696711617704e-09 4.1216239945366116e-04 0.0000000000000000e+00  5.5036692600188399e-06 -5.6863048775041632e-04 0.0000000000000000e+00  -5.6743139663263870e-04 -3.0506744363346977e-06 0.0000000000000000e+00  -2.0610980891461598e-04 2.0606163894206850e-04 0.0000000000000000e+00  2.0609571337288865e-04 -2.0614661958654330e-04 0.0000000000000000e+00  -2.8037288407982154e-04 3.0212662054595544e-04 0.0000000000000000e+00  2.1939059418626765e-04 -3.6359484153342754e-04 0.0000000000000000e+00  -3.0217978198353990e-04 2.8032513362044473e-04 0.0000000000000000e+00  5.0257927792200677e-04 -7.7924427390574857e-05 0.0000000000000000e+00  -2.6142136591375195e-04 -2.6146026963472241e-04 0.0000000000000000e+00  2.6140595474915233e-04 2.6137699113697096e-04 0.0000000000000000e+00  5.8259154619236908e-05 5.0477807454224542e-04 0.0000000000000000e+00  -3.1109607304884374e-04 -2.5448241540038005e-04 0.0000000000000000e+00  -2.4118635497678761e-04 -3.2141461688051987e-04 0.0000000000000000e+00  4.9384928230224471e-04 1.9777538117531987e-05 0.0000000000000000e+00  -1.7294722073138966e-04 -3.9018345476118856e-04 0.0000000000000000e+00  1.5441585088817896e-04 -3.5777328242298835e-04 0.0000000000000000e+00  2.3434816137225855e-04 -3.1955931152366111e-04 0.0000000000000000e+00  -2.5184574978074774e-04 3.0621746167559881e-04 0.0000000000000000e+00  3.8082689263892883e-04 1.5770068438172871e-04 0.0000000000000000e+00  3.5784474065491675e-04 1.8755933319332822e-04 0.0000000000000000e+00  4.7663180834961996e-05 4.5765145703610823e-04 0.0000000000000000e+00  -1.1946047819272091e-08 4.1216836765391607e-04 0.0000000000000000e+00  -4.1221436096577739e-04 -3.9581859589448840e-08 0.0000000000000000e+00  4.1219644346982546e-04 -3.9358787486667588e-08 0.0000000000000000e+00  -1.1232120357389524e-08 -4.1224836711863241e-04 0.0000000000000000e+00  -5.8408270927468611e-05 -4.1554337058184005e-04 0.0000000000000000e+00  6.2074489437303365e-05 -2.8566866920394762e-04 0.0000000000000000e+00  -1.6902361409770403e-04 1.8241465584263268e-05 0.0000000000000000e+00  -1.0440603839036693e-08 -4.1225481256501443e-04 0.0000000000000000e+00  -8.8960853087198119e-09 4.1216211579012460e-04 0.0000000000000000e+00  -1.1946047819272091e-08 4.1216836765391607e-04 0.0000000000000000e+00  -1.1232120357389524e-08 -4.1224836711863241e-04 0.0000000000000000e+00  -4.1220738948599596e-04 -4.0134738889325386e-08 0.0000000000000000e+00  4.1220485072056436e-04 -3.8834476040040937e-08 0.0000000000000000e+00  -4.1220738948599596e-04 -4.0134738889325386e-08 0.0000000000000000e+00  -8.8960853087198119e-09 4.1216211579012460e-04 0.0000000000000000e+00  -4.1221436096577739e-04 -3.9581859589448840e-08 0.0000000000000000e+00  4.1219644346982546e-04 -3.9358787486667588e-08 0.0000000000000000e+00  -1.0440603839036693e-08 -4.1225481256501443e-04 0.0000000000000000e+00  4.1220485072056436e-04 -3.8834476040040937e-08 0.0000000000000000e+00  1.1847362963643330e-04 4.0544041355021298e-04 0.0000000000000000e+00  -3.9362759171475642e-04 -8.5674901348742693e-05 0.0000000000000000e+00  -4.7946550400911661e-04 -9.8661836541104016e-05 0.0000000000000000e+00  2.6458906200828834e-04 -9.5410799488618669e-05 0.0000000000000000e+00  -5.9679006672184312e-06 -5.1555509826307000e-04 0.0000000000000000e+00  -3.1794668633165302e-05 4.4201951526456684e-04 0.0000000000000000e+00  -2.4541041770668423e-04 7.6143962174953081e-05 0.0000000000000000e+00  -1.9091126821358883e-05 4.5299906169836516e-04 0.0000000000000000e+00  -3.7613073917740003e-04 -3.2299241887476699e-06 0.0000000000000000e+00  2.3940510086309922e-04 2.3489177928226912e-04 0.0000000000000000e+00  4.6176906416495964e-04 6.3518779957388928e-05 0.0000000000000000e+00  -5.1786799041026886e-04 5.9863075212387370e-05 0.0000000000000000e+00  4.6244131338156599e-04 -1.1836337880108844e-04 0.0000000000000000e+00  -4.6642533195997418e-04 1.1150208659426059e-04 0.0000000000000000e+00  -8.9813436144153429e-05 4.7360138810909806e-04 0.0000000000000000e+00  9.6576157824198011e-05 6.2876322715665320e-05 0.0000000000000000e+00  4.7538331145000442e-04 -6.3222572175591424e-05 0.0000000000000000e+00  2.8586450283343487e-04 -2.8591498977630444e-04 0.0000000000000000e+00  1.0049011138598590e-05 -4.6571210484636669e-04 0.0000000000000000e+00  2.6201527251861682e-04 -1.9495135035906835e-04 0.0000000000000000e+00  -2.6493512875296488e-04 2.6488902547887501e-04 0.0000000000000000e+00  5.4697790565139657e-04 3.5870250050905749e-05 0.0000000000000000e+00  2.4207227927954394e-06 5.7561289953460542e-04 0.0000000000000000e+00  2.7038533067887723e-04 2.9931587121553123e-04 0.0000000000000000e+00  -2.1242708101874270e-05 -1.6235066705094894e-04 0.0000000000000000e+00  -9.5921426847194585e-05 -4.8629978135585620e-04 0.0000000000000000e+00  -2.6688542877003263e-04 -2.6691801918178712e-04 0.0000000000000000e+00  3.5274851032723311e-05 1.3389747591881503e-04 0.0000000000000000e+00  4.8624793685351358e-04 9.5873835511083437e-05 0.0000000000000000e+00  2.6672494951944845e-04 2.6774043765589133e-04 0.0000000000000000e+00  -4.8626154289074141e-04 -9.5954010777474463e-05 0.0000000000000000e+00  -3.8344726101665141e-04 5.9920871518829125e-05 0.0000000000000000e+00  -4.8852191390496213e-04 5.3859297318343746e-05 0.0000000000000000e+00  1.4893122268103956e-04 9.1637632819619233e-05 0.0000000000000000e+00  -2.0446930814806979e-04 2.1532883458938180e-04 0.0000000000000000e+00  -2.1537754883095098e-04 2.0442625016527059e-04 0.0000000000000000e+00  2.0453552300839432e-04 -2.1505791568938022e-04 0.0000000000000000e+00  2.0464519595177812e-04 2.1436053084397436e-04 0.0000000000000000e+00  8.7846483678460225e-05 4.9500947399571554e-04 0.0000000000000000e+00  -4.0594496712895807e-04 1.3472728909328510e-04 0.0000000000000000e+00  -4.0932192758762241e-04 -8.3143136921955517e-05 0.0000000000000000e+00  -3.1669351649694868e-05 3.0089765470579230e-04 0.0000000000000000e+00  2.9906268976543200e-04 -9.9939439286700392e-05 0.0000000000000000e+00  -3.8373136126472089e-04 -2.5279424762612561e-05 0.0000000000000000e+00  -5.3857579493826616e-04 -4.0245010146285373e-08 0.0000000000000000e+00  -9.1058694689161469e-05 -4.4280686811227766e-04 0.0000000000000000e+00  1.8942516014393222e-04 3.8828989516156520e-04 0.0000000000000000e+00  -1.0645001541363311e-08 -5.3862148913816788e-04 0.0000000000000000e+00  1.0465343126664370e-04 -3.3623573878604850e-04 0.0000000000000000e+00  -2.2308226437190478e-04 -4.0839430151598143e-08 0.0000000000000000e+00  -2.8639833636591265e-04 -2.2635052028995516e-04 0.0000000000000000e+00  2.4258653400404614e-05 -4.8533601031789547e-04 0.0000000000000000e+00  3.0977700544075436e-04 -2.2991873028069395e-04 0.0000000000000000e+00  5.3376411967008194e-04 -4.6653891648547249e-05 0.0000000000000000e+00  2.8556336426728736e-04 -7.9923860007758693e-05 0.0000000000000000e+00  -8.8435253119800012e-05 4.9102407310133321e-04 0.0000000000000000e+00  -5.8690578386653556e-05 -2.4646479533806098e-04 0.0000000000000000e+00  -7.6253711076809173e-05 4.9799456420332650e-04 0.0000000000000000e+00  2.3304699968796516e-05 -5.4666498963860672e-04 0.0000000000000000e+00  -1.1045952762853855e-04 4.7048732127445876e-04 0.0000000000000000e+00  -7.2012313592002009e-09 -5.3861962310877796e-04 0.0000000000000000e+00  -4.3229447715037396e-05 -2.8022634336992105e-04 0.0000000000000000e+00  5.7569655375916211e-04 5.0544257286221351e-06 0.0000000000000000e+00  2.2307160619672601e-04 -3.8596321858227060e-08 0.0000000000000000e+00  -1.8617205815738626e-04 2.4481676465629978e-04 0.0000000000000000e+00  -1.6085016582488359e-04 -3.6613363702521831e-04 0.0000000000000000e+00  -1.7453755766544380e-04 -1.7922213895311571e-04 0.0000000000000000e+00  -1.0728462484844144e-08 -2.2313155775951883e-04 0.0000000000000000e+00  -2.1933392832677805e-04 -3.0459467434732981e-04 0.0000000000000000e+00  1.7145248994509618e-04 -3.9991846065313047e-04 0.0000000000000000e+00  2.7480294041047192e-04 1.9721684679195709e-04 0.0000000000000000e+00  -2.0810849952370054e-04 3.3048737761763808e-04 0.0000000000000000e+00  2.1680775988273065e-05 -5.1838870981899747e-04 0.0000000000000000e+00  3.4299835143905896e-04 -2.3636699383231138e-04 0.0000000000000000e+00  -5.3916408333749030e-04 -3.3716374098929075e-06 0.0000000000000000e+00  -4.8936258734300748e-04 -8.8737026836372860e-05 0.0000000000000000e+00  -4.3363600856113980e-04 1.3033309160156512e-04 0.0000000000000000e+00  1.3117675095698929e-04 -4.3326402791167166e-04 0.0000000000000000e+00  1.7566794948415903e-04 3.9259585691320503e-04 0.0000000000000000e+00  4.1579447076449492e-04 -6.2161410552047186e-06 0.0000000000000000e+00  -1.1375462566893919e-08 2.2303762824997238e-04 0.0000000000000000e+00  2.2343618003116650e-04 1.0054397295378450e-04 0.0000000000000000e+00  5.2821961146034559e-04 4.3480739157795020e-05 0.0000000000000000e+00  3.9378874768370597e-04 1.6937354305455123e-04 0.0000000000000000e+00  -1.2577849789934117e-08 -2.2312177947945793e-04 0.0000000000000000e+00  -3.5058176257303080e-04 -1.9531028320274343e-04 0.0000000000000000e+00  -1.1570961967260626e-04 -4.6502416653775182e-04 0.0000000000000000e+00  4.5529848234505445e-04 -2.2071308696252726e-07 0.0000000000000000e+00  -3.9319214488751648e-04 -7.1192144993199608e-05 0.0000000000000000e+00  4.2397564291447539e-04 1.5598589657332966e-04 0.0000000000000000e+00  -3.0051421419445025e-04 2.7322779275810804e-04 0.0000000000000000e+00  -9.8374192676324577e-09 5.3853204732979513e-04 0.0000000000000000e+00  1.1780924212782641e-04 -4.6517293897516712e-04 0.0000000000000000e+00  4.1527289546706324e-04 -1.4566125473748390e-04 0.0000000000000000e+00  -1.9607174104015429e-04 1.2694473797622663e-04 0.0000000000000000e+00  -1.7211599969119208e-04 2.9786647599046664e-04 0.0000000000000000e+00  -7.3253579606971330e-05 -3.9350512484092373e-04 0.0000000000000000e+00  -1.0645001541363311e-08 -5.3862148913816788e-04 0.0000000000000000e+00  8.2721498739921008e-06 5.6182582065959926e-04 0.0000000000000000e+00  4.5369978326340683e-04 -1.1807908996842401e-04 0.0000000000000000e+00  -5.7288805538493700e-04 -1.0251149892035323e-06 0.0000000000000000e+00  -4.9061330161787899e-04 -9.2193211292791372e-05 0.0000000000000000e+00  -4.3974147969948939e-04 1.3237600242200134e-04 0.0000000000000000e+00  -3.2488869747375227e-04 -1.8774056020778287e-04 0.0000000000000000e+00  -5.5840979081086186e-09 2.2304623870941610e-04 0.0000000000000000e+00  2.2307160619672601e-04 -3.8596321858227060e-08 0.0000000000000000e+00  -2.2309541436002254e-04 -4.3588256664088656e-08 0.0000000000000000e+00  -1.2577849789934117e-08 -2.2312177947945793e-04 0.0000000000000000e+00  -1.0392727388322836e-05 -2.3326725344891027e-04 0.0000000000000000e+00  1.0652655147377894e-04 -4.0404506619038272e-04 0.0000000000000000e+00  -1.8942952767888710e-04 -3.8871075596559656e-04 0.0000000000000000e+00  -3.7493250963757034e-05 3.5764082968395874e-04 0.0000000000000000e+00  1.9745833177326927e-05 5.3420163384166925e-04 0.0000000000000000e+00  -4.5041519850666770e-05 2.1767790828795138e-04 0.0000000000000000e+00  -5.5840979081086186e-09 2.2304623870941610e-04 0.0000000000000000e+00  -2.2309541436002254e-04 -4.3588256664088656e-08 0.0000000000000000e+00  3.3136082964563735e-04 -2.3611313844843788e-05 0.0000000000000000e+00  2.1888780216137711e-04 -1.1807137980372685e-04 0.0000000000000000e+00  4.3049465897929687e-04 1.4267518208684637e-04 0.0000000000000000e+00  -5.8469096627973715e-05 -5.2216505222201968e-04 0.0000000000000000e+00  -1.9122250324041400e-05 -5.6109501201671397e-04 0.0000000000000000e+00  -2.2004321086807591e-04 -1.4126893593054070e-04 0.0000000000000000e+00  -2.2947810476952121e-04 -6.4911739566112696e-06 0.0000000000000000e+00  -2.1466451867383291e-08 2.2324838476517480e-04 0.0000000000000000e+00  -9.8374192676324577e-09 5.3853204732979513e-04 0.0000000000000000e+00  -1.0203311121885267e-08 5.3853490332404568e-04 0.0000000000000000e+00  2.2308370605753796e-04 -3.7044654042594303e-08 0.0000000000000000e+00  -1.1375462566893919e-08 2.2303762824997238e-04 0.0000000000000000e+00  -5.3857579493826616e-04 -4.0245010146285373e-08 0.0000000000000000e+00  -2.2308226437190478e-04 -4.0839430151598143e-08 0.0000000000000000e+00  -5.3858070171508468e-04 -3.8647179283408948e-08 0.0000000000000000e+00  -7.2012313592002009e-09 -5.3861962310877796e-04 0.0000000000000000e+00  -1.0728462484844144e-08 -2.2313155775951883e-04 0.0000000000000000e+00  -1.0203311121885267e-08 5.3853490332404568e-04 0.0000000000000000e+00  -5.3858070171508468e-04 -3.8647179283408948e-08 0.0000000000000000e+00  2.2308370605753796e-04 -3.7044654042594303e-08 0.0000000000000000e+00  5.3857058206427117e-04 -3.8659138038498819e-08 0.0000000000000000e+00  5.3856687442881308e-04 -3.8746708165540297e-08 0.0000000000000000e+00  5.3857058206427117e-04 -3.8659138038498819e-08 0.0000000000000000e+00  5.3856687442881308e-04 -3.8746708165540297e-08 0.0000000000000000e+00  2.0429173770190271e-04 2.6624574516055010e-04 0.0000000000000000e+00  -3.9748277088354076e-04 8.3822793857663862e-05 0.0000000000000000e+00  3.7921322091592953e-04 -1.5653569352123045e-04 0.0000000000000000e+00  2.1009739038089018e-04 -2.1014961613354322e-04 0.0000000000000000e+00  2.7635040555742724e-04 -2.5092684912662112e-04 0.0000000000000000e+00  6.3970387378841677e-05 -1.5637640816180964e-04 0.0000000000000000e+00  3.0785081920667084e-04 8.8214926893380292e-05 0.0000000000000000e+00  -1.2991170615946475e-04 4.3088458702711542e-04 0.0000000000000000e+00  -5.4022272448207213e-04 7.2898957236879273e-06 0.0000000000000000e+00  -2.0337611565517336e-04 5.2307830854896391e-05 0.0000000000000000e+00  6.9138953438675465e-05 5.1375463290083488e-04 0.0000000000000000e+00  1.1207597167953287e-04 4.5194461061448201e-04 0.0000000000000000e+00  -9.0532125626553885e-05 3.8914541622447467e-04 0.0000000000000000e+00  -2.4105089595265821e-04 -1.5433530804134701e-04 0.0000000000000000e+00  -1.2523874288596703e-04 2.5634694116654300e-05 0.0000000000000000e+00  -2.1920825864324330e-04 -1.2321019617331699e-04 0.0000000000000000e+00  4.5929401037409054e-04 -6.7803777213066557e-05 0.0000000000000000e+00  1.4653008597967287e-04 -3.7545263472598555e-04 0.0000000000000000e+00  1.4480556960918794e-04 3.2029577451762355e-04 0.0000000000000000e+00  1.1260756266197855e-04 4.0528389464834373e-04 0.0000000000000000e+00  -3.5116450897092259e-04 1.7398760670395871e-04 0.0000000000000000e+00  -4.0565150638243967e-05 5.2154589429490292e-05 0.0000000000000000e+00  6.5984782502001701e-06 5.4488758068612438e-04 0.0000000000000000e+00  1.9206141036934388e-05 -6.5074885724181831e-05 0.0000000000000000e+00  -1.7051149377202078e-04 3.8266104087191530e-04 0.0000000000000000e+00  -3.5814126535802920e-04 -2.2201281671497338e-04 0.0000000000000000e+00  9.1104894269446282e-05 -4.8583848380114578e-04 0.0000000000000000e+00  -9.7276772090583574e-05 -4.8274123887365975e-04 0.0000000000000000e+00  2.5877993296261618e-04 3.1427924151216388e-04 0.0000000000000000e+00  -9.8687183083196863e-06 2.6859429143249173e-04 0.0000000000000000e+00  1.0802942112141914e-04 -1.6446413748875504e-04 0.0000000000000000e+00  3.7292084295645816e-04 -1.9692111762429737e-04 0.0000000000000000e+00  1.4486249406426850e-04 -3.7195873106014052e-04 0.0000000000000000e+00  -2.8311233390909132e-04 -2.9805271481567029e-04 0.0000000000000000e+00  -2.2748356877126151e-04 1.8298268585583677e-04 0.0000000000000000e+00  -1.4625768187040929e-04 3.6782114084871550e-04 0.0000000000000000e+00  1.6079879798757370e-04 2.8373331474265212e-04 0.0000000000000000e+00  -5.2844014802886426e-04 5.4446429452948307e-05 0.0000000000000000e+00  3.2121150055326037e-04 6.9606455971084374e-05 0.0000000000000000e+00  2.5234035992778017e-04 3.0703718852015827e-04 0.0000000000000000e+00  -9.1760617232057785e-05 4.6443107032463453e-04 0.0000000000000000e+00  -5.0702410116135318e-04 3.9322835944344712e-05 0.0000000000000000e+00  5.4641612933128253e-04 -2.2389898805059868e-05 0.0000000000000000e+00  1.0200306410292885e-04 3.7965368538597853e-04 0.0000000000000000e+00  3.7935555224607889e-04 1.0945177436398153e-04 0.0000000000000000e+00  1.8590877403287968e-04 8.0028055080955571e-05 0.0000000000000000e+00  1.0175450326878526e-04 2.5134576075187126e-04 0.0000000000000000e+00  -4.3024800064466682e-04 1.4741416231156977e-04 0.0000000000000000e+00  -3.4062844597699187e-04 3.8271333216285964e-05 0.0000000000000000e+00  9.5895325834508655e-05 -3.5566736123189525e-04 0.0000000000000000e+00  -3.3150232517506569e-06 5.5024256405293299e-04 0.0000000000000000e+00  -5.5130529463589932e-04 -1.2569979626067722e-05 0.0000000000000000e+00  2.7054158670824545e-05 -5.4785045493021677e-04 0.0000000000000000e+00  -3.1323833800162959e-05 -5.4920007309526358e-04 0.0000000000000000e+00  1.2034569690941470e-05 -1.1266600714219768e-04 0.0000000000000000e+00  2.1890463502694627e-04 3.5022938884147380e-04 0.0000000000000000e+00  -3.6210416983283202e-04 1.4696963792254204e-04 0.0000000000000000e+00  -4.6819589761796463e-04 8.3782872243982301e-05 0.0000000000000000e+00  -1.3333137325807716e-04 4.2557038322250772e-04 0.0000000000000000e+00  -2.3636709890817169e-05 2.9942412057707774e-04 0.0000000000000000e+00  -1.5707610000538516e-05 4.5528556548408473e-04 0.0000000000000000e+00  -4.3377796002577474e-04 -1.1702580601862691e-04 0.0000000000000000e+00  -1.0823757275390367e-04 -4.3381834911147366e-04 0.0000000000000000e+00  1.7396284491860866e-04 -7.1856613937149177e-05 0.0000000000000000e+00  1.3261125906505926e-04 -3.2936929911291151e-04 0.0000000000000000e+00  4.0435130328759865e-04 -1.3035948107915124e-04 0.0000000000000000e+00  1.8816806998568191e-05 -4.9487382034544799e-04 0.0000000000000000e+00  5.2230931125315508e-04 6.0419783599531967e-05 0.0000000000000000e+00  4.3708114520097806e-04 -1.3692436019618542e-04 0.0000000000000000e+00  -4.5858571048837903e-04 -7.5545408681678921e-05 0.0000000000000000e+00  2.1501369194370953e-04 3.6771268968374123e-04 0.0000000000000000e+00  1.2737624533835633e-04 4.1158328911726543e-04 0.0000000000000000e+00  1.4276096382279570e-05 5.1829188979437028e-04 0.0000000000000000e+00  1.4130282097600530e-06 5.6587400919826060e-04 0.0000000000000000e+00  -2.8297972037356991e-05 5.5365940948314094e-04 0.0000000000000000e+00  -1.7077289258595220e-04 3.5118293466030587e-04 0.0000000000000000e+00  -3.2847570252988149e-04 2.5158541892287195e-04 0.0000000000000000e+00  -4.9492503713684472e-04 2.1413760180278219e-05 0.0000000000000000e+00  2.6891515134741073e-04 4.2183145614194326e-05 0.0