<?xml version="1.0"?>
<VTKFile type="UnstructuredGrid"  version="0.1"  >
<UnstructuredGrid>
<Piece  NumberOfPoints="5315" NumberOfCells="10372">
<Points>
<DataArray  type="Float64"  NumberOfComponents="3"  format="ascii">-1 -1 0  1 -1 0  1 1 0  -1 1 0  0 -1 0  1 0 0  0 1 0  -1 0 0  0 0 0  -1 -0.5 0  -0.5 -1 0  -0.5 1 0  -1 0.5 0  1 -0.5 0  0.5 -1 0  1 0.5 0  0.5 1 0  0.4166666666666666 -0.4166666666666667 0  -0.4166666666666667 0.4166666666666667 0  -0.25 -0.5 0  0.5 0.25 0  -0.4861111111111112 -0.06944444444444445 0  0.0732758620689655 0.507183908045977 0  -0.625 -0.625 0  0.625 0.625 0  0.7380952380952381 -0.25 0  -0.7099116161616161 0.2105429292929293 0  -0.25 0.7380952380952381 0  0.105392156862745 -0.6348039215686275 0  0.6770833333333334 -0.6770833333333333 0  -0.6770833333333334 0.6770833333333334 0  0.3472222222222222 -0.06944444444444446 0  -0.7264957264957265 -0.3044871794871795 0  0.3141940982507127 0.7297313660835709 0  0.02049587951122483 -0.3227479397556124 0  -0.2690972222222223 0.1475694444444444 0  0.3859500089908372 -0.7274430156831472 0  -0.2228477945123298 -0.1761765495248019 0  0.2182539682539683 0.1884920634920635 0  0.75 0.375 0  -0.145442219440968 -0.7602211097204841 0  0.7088913690476191 0.0427827380952381 0  -0.75 -1 0  -1 -0.75 0  1 0.75 0  0.75 1 0  -0.7439982703698937 -0.04614153195464455 0  -0.4609235096577606 -0.3356498099556895 0  0.4063134471431929 0.4895621842856023 0  0.25 -1 0  -0.25 -1 0  -0.75 1 0  0.75 -1 0  -1 -0.25 0  -1 0.25 0  1 -0.25 0  -0.25 1 0  1 -0.75 0  -1 0.75 0  0.25 1 0  1 0.25 0  -0.4041423272138783 -0.7597141090712928 0  0.06500839607911253 0.7578103030529481 0  -0.1572801182352047 0.3838997021864289 0  -0.6528005242053915 0.4409494757946086 0  -0.4930160984848485 0.1544744318181818 0  -0.4732142857142858 0.7752976190476191 0  0.6398809523809523 -0.4538690476190476 0  0.5166054117396399 -0.2161233620965164 0  -0.002273787244753427 0.2232363985975174 0  0.1500564496765022 -0.1524955293952667 0  0.2016720420046758 -0.4410343282803009 0  -0.08495178036419618 0.6274139771124571 0  -0.8367311471133162 0.3642591720794645 0  -0.8333333333333334 -0.625 0  -0.594323836800685 -0.8231079456002283 0  -0.4466957714776065 -0.5349126855671806 0  0.8125 0.5625 0  0.78125 0.78125 0  0.5091392650016769 0.7947130883338923 0  0.125 -0.8382681931833136 0  -0.8184523809523809 -0.8184523809523809 0  -0.07781530426104531 -0.5819319697006881 0  0.5085055196703295 0.04967610411902112 0  0.2918471072074933 -0.276017202318847 0  0.5120763537765269 -0.5898771553229597 0  0.625 -0.8585349462365591 0  0.8158532234335381 -0.8158532234335381 0  -0.5198088446315396 0.5739411553684605 0  -0.8585349462365591 0.625 0  -0.8150493805516597 0.8156205699829586 0  0.8585349462365591 -0.625 0  -0.2688268348649726 0.5439331383603209 0  0.8242100426758139 -0.4436043596336612 0  0.5833756314287952 0.4479378157143976 0  0.8690476190476191 -0.125 0  -0.125 0.8690476190476191 0  -0.8692745600729823 0.125 0  0.8696725120759167 0.125 0  -0.625 0.8711516477451908 0  0.2339522463269718 0.3879558377955778 0  0.2453709502295031 0.5655822922838026 0  0.1730610651637797 0.02021709580868947 0  0.3245402594056757 -0.5644672020485209 0  -0.7291666666666666 -0.4816595441595442 0  -1 -0.375 0  -0.5811140848639904 -0.2127276307675001 0  0.673332592838314 0.2158348143233718 0  0.375 1 0  -0.5714768890989919 0.2985103444040069 0  -1 -0.125 0  -0.8453692574786325 -0.1875 0  -0.3144549134065865 -0.02408675326008025 0  -0.2898414972096258 -0.3336092734780093 0  -0.1075052092206287 -0.4224330421314983 0  -0.05043970703604117 -0.1652278959397459 0  0.6459672950297897 -0.1113415301525317 0  0.4645210271029513 0.6398480556579343 0  0.3512863754411909 0.0937979496253573 0  -0.6063160985568274 0.03891469652249891 0  -0.3428819444444445 0.8690476190476191 0  0.625 1 0  -0.1602164796159982 0.02697860906625157 0  0.04648110064133829 -0.4808416424239687 0  1 0.875 0  -0.3836102479201657 0.6484936449177356 0  -0.3776011723096096 0.263078478984336 0  -0.6024978259969829 -0.3949628096211138 0  0.125 1 0  0.2010781308272777 0.8456221018461906 0  0.2822509696388829 -0.845902544691141 0  -0.3285533674953515 -0.6289773550938936 0  0.3461306793221754 0.278777492464833 0  0.4737475672408696 -0.8508448959534423 0  0.2384632828836344 -0.7029523187242811 0  -0.004777287059791593 0.3759269695907358 0  -0.8499735021850066 -0.3912320205328522 0  0.1222536293721587 0.2963971539625205 0  -0.3769456520999688 -0.203572526805711 0  -0.2749617205755651 -0.8464290792698902 0  0.004805888512766143 -0.747174355248311 0  -0.125 -1 0  -0.06001061822252458 -0.8724007765244854 0  0.875 0.4375 0  0.854421179608893 0.271342359217786 0  0.875 1 0  -0.1499861095763589 0.2358309656934888 0  0.3381943639137225 0.8663061796405532 0  -0.7853090110442228 0.4998412775277108 0  0.7398165998560814 -0.5535192694951373 0  0.1580042122341573 -0.3100246140259917 0  -0.7291666666666667 -0.7142857142857142 0  -0.375 -1 0  0.6483368386154684 0.8514905990110488 0  -0.1295370103291928 -0.2826118305021242 0  0.07458201853700455 0.1123894386563915 0  0.6146465857036327 -0.3161203659316075 0  0.5551898493894731 -0.740296118159085 0  0.375 -1 0  0.482702798370208 -0.084133350091034 0  0.87890625 0.68359375 0  -0.05917195534525846 0.4971092425697621 0  0.1260710309213975 0.6343750312956699 0  0.8690476190476191 -0.3077066815262848 0  -0.2912010232560567 0.3668168386732139 0  -0.875 1 0  -1 0.875 0  1 -0.875 0  0.875 -1 0  -0.8689564281364567 -0.006189266075306407 0  -0.7449425635110547 0.08458938160051771 0  -0.7150266761936593 -0.1739444581417552 0  -0.5260034831318311 -0.711099823962112 0  -0.4724626808827322 -0.871722230709409 0  0.4734436795977052 0.377714794132168 0  -0.875 -1 0  -1 -0.875 0  0.6927189078571988 0.5156567235715964 0  -0.3742497615796874 -0.4296005251260107 0  -0.1969436423297711 -0.6387157229772615 0  -0.6179496409766825 -0.08933356056510935 0  -0.424405057115988 0.04452428810878029 0  -0.08479048335844169 0.1279607007132633 0  0.003830300099055113 0.8712085230656206 0  0.8748778838820267 -1.379218479898026e-05 0  -0.375 1 0  -0.625 1 0  1 0.125 0  -0.125 1 0  1 -0.375 0  1 -0.125 0  1 -0.625 0  0.625 -1 0  0.125 -1 0  -0.625 -1 0  -1 -0.625 0  -1 0.125 0  -1 0.375 0  -1 0.625 0  1 0.375 0  1 0.625 0  0.6325660748712082 0.3335187599557389 0  -0.06420945895056573 0.7549874027425891 0  -0.8769015540914771 0.2478802253893416 0  0.871875 0.871875 0  -0.6868091492840067 0.3270978624973681 0  -0.5363597469565949 0.412994850055505 0  -0.6803734992638302 0.5574295000651103 0  -0.7076253581162534 -0.8803439094224437 0  -0.8778089002295137 -0.5106896447504627 0  -0.3860184984222981 0.530566778071246 0  0.6109900617121508 0.1128453077697081 0  0.3896945134930274 -0.1915382873255086 0  0.7605656944697778 -0.06822134873122943 0  0.3576151269893478 0.5948388411612135 0  -0.5689902680792265 -0.5143596830118065 0  0.6262446286847614 -0.5735657901943212 0  0.2030558252325225 -0.5625263842513452 0  0.6123273142928579 0.7407533260723429 0  0.4016460890123554 -0.3042863223111857 0  -0.59039693199147 0.7578418819188018 0  0.7276932493917544 -0.3705808024528924 0  0.5222536818742854 -0.4713886230400014 0  -0.5101986527137737 0.8848365765607674 0  0.510560172809238 0.5356013299918891 0  -0.3603569195756083 0.75823710606415 0  0.1967279277813232 0.728226870058472 0  -0.6086880986371127 0.1545624071548516 0  -0.38105366729386 0.1511189987807864 0  -0.2944659463671584 -0.7359061804869591 0  0.5060729154966499 -0.3475227845833823 0  -0.09281616240412746 -0.06197858250969457 0  0.7649739583333334 0.6673177083333334 0  0.7628906249999999 0.890234375 0  -0.2666864184909611 0.2585504071132311 0  0.3635064892129658 0.3878003602709461 0  -0.2339409722222222 0.8901937905844155 0  -0.1718792125974916 -0.8957733325456778 0  0.1001768566329531 0.4023510017391879 0  0.3120260172693757 -0.4540546875576884 0  0.7804062804433681 0.1896628610854537 0  0.4087715451998049 0.187961780041608 0  -0.1584963477271457 0.5451611892421655 0  -0.8926817849258324 0.463022006336401 0  0.2338091473445219 -0.07576267331277289 0  0.08171112182813692 -0.2349087687359925 0  0.04635385178956847 -0.1044635073718474 0  -0.4377391632114205 -0.6448874471423088 0  -0.1907678351227189 0.6480215912813945 0  0.300605946475244 0.4741444604171038 0  -0.2145033720757486 -0.06751709909419711 0  0.6069191921170397 -0.005492331448357812 0  0.0214718770761248 0.6032397936031719 0  0.5476675683364878 0.8992752415326501 0  0.4387475014316537 0.9093708953002239 0  -0.4932997685306436 -0.4381009159993523 0  0.2515197695339056 -0.1791673369138964 0  -0.7291666666666667 -0.6088789682539681 0  -0.9166666666666667 -0.6875 0  0.620579540363709 -0.2122431523583302 0  -0.484950136419973 0.6719440339397442 0  0.2857044415400258 0.0137589173127316 0  -0.8945708364098356 -0.288306105327986 0  0.4043102720140535 0.7842914560451557 0  0.04123256238752064 -0.9026968245801402 0  0.2003676884403109 -0.9091888601740487 0  0.1068775558538842 -0.7373377130403223 0  -0.4804566783514427 -0.1763307203045643 0  0.108286342087769 -0.3993789328997278 0  -0.191883080105361 -0.3640821726430649 0  -0.07025064492006244 0.2984876656890053 0  -0.7039324641409584 0.788312126296613 0  -0.7311286585775438 0.8932502354831682 0  0.5171409396884947 0.1503852691889257 0  0.4229392823658633 -0.003216522184234835 0  -0.5621736087218259 -0.919558629836806 0  -0.626474064879544 -0.7266572613636506 0  0.2446828746617422 0.2867616783302419 0  0.1759429608742923 0.4776611759306416 0  -0.3468240303741654 -0.5260416435617549 0  -0.7465808808425306 0.4069574477998361 0  -0.7819962170660292 0.2802441065650652 0  -0.3742623214119594 -0.8547800509641984 0  0.1014498009713561 0.8506721983266377 0  0.4285217620918213 -0.5230190595570253 0  0.4091738370487775 -0.6256346204225141 0  0.78125 0.46875 0  0.90625 0.53125 0  -0.4791801348852565 0.2553992655702126 0  0.7843318610782772 -0.7086046956885941 0  0.8909728264971901 -0.7355183796514634 0  0.7041908166528879 -0.7830649143180282 0  0.731182135
[...]
<PointData  Vectors="f_21"> 
<DataArray  type="Float64"  Name="f_21"  NumberOfComponents="3" format="ascii">-6.8588143655057644e-09 -4.2157348293133589e-08 0.0000000000000000e+00  -6.8588143655057644e-09 -4.2157348293133589e-08 0.0000000000000000e+00  -6.8588143655057644e-09 -4.2157348293133589e-08 0.0000000000000000e+00  -6.8588143655057644e-09 -4.2157348293133589e-08 0.0000000000000000e+00  -7.5009197553195180e-09 -4.5429789453064569e-08 0.0000000000000000e+00  -2.9873352094106463e-09 -4.1962123633774620e-08 0.0000000000000000e+00  -7.5009197553195180e-09 -4.5429789453064569e-08 0.0000000000000000e+00  -2.9873352094106463e-09 -4.1962123633774620e-08 0.0000000000000000e+00  -3.8326288590594081e-09 -4.5181762644467927e-08 0.0000000000000000e+00  -1.0037569980255320e-04 -4.1872683720597102e-08 0.0000000000000000e+00  -7.0052909457224288e-09 1.0032847910678589e-04 0.0000000000000000e+00  -7.0052909457224288e-09 1.0032847910678589e-04 0.0000000000000000e+00  1.0036580595030796e-04 -4.1906541630388192e-08 0.0000000000000000e+00  -1.0037569980255320e-04 -4.1872683720597102e-08 0.0000000000000000e+00  -6.9734286471048554e-09 -1.0041562452482329e-04 0.0000000000000000e+00  1.0036580595030796e-04 -4.1906541630388192e-08 0.0000000000000000e+00  -6.9734286471048554e-09 -1.0041562452482329e-04 0.0000000000000000e+00  2.5088846387615208e-05 2.5048226990320787e-05 0.0000000000000000e+00  -2.5098450768351413e-05 -2.5135596849758035e-05 0.0000000000000000e+00  7.0969055484207714e-05 -4.3836994661225923e-08 0.0000000000000000e+00  -4.0221716181041874e-09 7.0928967761430938e-05 0.0000000000000000e+00  9.4465503808903205e-07 -9.7941608778129961e-05 0.0000000000000000e+00  -9.7704001942176073e-05 -5.6239069358913113e-07 0.0000000000000000e+00  -3.5491994462586677e-05 3.5444131457928291e-05 0.0000000000000000e+00  3.5480428822204077e-05 -3.5530155883370875e-05 0.0000000000000000e+00  -4.8277272876565845e-05 5.1984009946857624e-05 0.0000000000000000e+00  3.7770941976536804e-05 -6.2638333032334937e-05 0.0000000000000000e+00  -5.2034009216031228e-05 4.8229545478449487e-05 0.0000000000000000e+00  8.6529057961017087e-05 -1.3454084391773584e-05 0.0000000000000000e+00  -4.5015625425533332e-05 -4.5053810429890430e-05 0.0000000000000000e+00  4.5003485893766644e-05 4.4968394369351507e-05 0.0000000000000000e+00  1.0028048071032997e-05 8.6875011197335415e-05 0.0000000000000000e+00  -5.3567284167357225e-05 -4.3851482483949743e-05 0.0000000000000000e+00  -4.1532238928217599e-05 -5.5377720056848594e-05 0.0000000000000000e+00  8.5027000935579601e-05 3.3681833808499883e-06 0.0000000000000000e+00  -2.9781014420601098e-05 -6.7217617810044067e-05 0.0000000000000000e+00  2.6582448172626215e-05 -6.1637750391121371e-05 0.0000000000000000e+00  4.0346759499070673e-05 -5.5057785517114345e-05 0.0000000000000000e+00  -4.3365779874567379e-05 5.2686929883111528e-05 0.0000000000000000e+00  6.5566277224319363e-05 2.7116962129385734e-05 0.0000000000000000e+00  6.1608440847663981e-05 3.2256918740819754e-05 0.0000000000000000e+00  8.2035990745152090e-06 7.8761920120433106e-05 0.0000000000000000e+00  -7.3747292368438847e-09 7.0931506401003788e-05 0.0000000000000000e+00  -7.0979229384693192e-05 -4.1899994916371630e-08 0.0000000000000000e+00  7.0966197305609498e-05 -4.1834862681003147e-08 0.0000000000000000e+00  -7.2239960851847430e-09 -7.1016034825458055e-05 0.0000000000000000e+00  -1.0059582980927149e-05 -7.1582720828596174e-05 0.0000000000000000e+00  1.0684585220748277e-05 -4.9221750116700791e-05 0.0000000000000000e+00  -2.9106631867866002e-05 3.1040156823550307e-06 0.0000000000000000e+00  -7.0925928440245559e-09 -7.1018544217030385e-05 0.0000000000000000e+00  -6.8060772929794316e-09 7.0929015557704347e-05 0.0000000000000000e+00  -7.3747292368438847e-09 7.0931506401003788e-05 0.0000000000000000e+00  -7.2239960851847430e-09 -7.1016034825458055e-05 0.0000000000000000e+00  -7.0976376606858945e-05 -4.1970254099237566e-08 0.0000000000000000e+00  7.0969332478733446e-05 -4.1768338521306522e-08 0.0000000000000000e+00  -7.0976376606858945e-05 -4.1970254099237566e-08 0.0000000000000000e+00  -6.8060772929794316e-09 7.0929015557704347e-05 0.0000000000000000e+00  -7.0979229384693192e-05 -4.1899994916371630e-08 0.0000000000000000e+00  7.0966197305609498e-05 -4.1834862681003147e-08 0.0000000000000000e+00  -7.0925928440245559e-09 -7.1018544217030385e-05 0.0000000000000000e+00  7.0969332478733446e-05 -4.1768338521306522e-08 0.0000000000000000e+00  2.0393894691212846e-05 6.9772205596417206e-05 0.0000000000000000e+00  -6.7779434139376971e-05 -1.4788514345492366e-05 0.0000000000000000e+00  -8.2557670281001251e-05 -1.7024173993975913e-05 0.0000000000000000e+00  4.5552336641665756e-05 -1.6462871495454015e-05 0.0000000000000000e+00  -1.0307688322858848e-06 -8.8803198327325954e-05 0.0000000000000000e+00  -5.4795700527348403e-06 7.6070620228832359e-05 0.0000000000000000e+00  -4.2258073699011433e-05 1.3074319132107029e-05 0.0000000000000000e+00  -3.2900725159211530e-06 7.7960265759470236e-05 0.0000000000000000e+00  -6.4765082232997071e-05 -5.9321177833698438e-07 0.0000000000000000e+00  4.1217461147367635e-05 4.0406158025470529e-05 0.0000000000000000e+00  7.9503117327923799e-05 1.0899415624177780e-05 0.0000000000000000e+00  -8.9170607075979562e-05 1.0270235953680375e-05 0.0000000000000000e+00  7.9618569690278644e-05 -2.0414573394796902e-05 0.0000000000000000e+00  -8.0312759291318987e-05 1.9163308626433755e-05 0.0000000000000000e+00  -1.5468922881329881e-05 8.1508660312710983e-05 0.0000000000000000e+00  1.6624393170088726e-05 1.0790141935095011e-05 0.0000000000000000e+00  8.1846171067949508e-05 -1.0921109863914986e-05 0.0000000000000000e+00  4.9214514909885136e-05 -4.9264020213950835e-05 0.0000000000000000e+00  1.7249501807785314e-06 -8.0222134134929867e-05 0.0000000000000000e+00  4.5108412266493333e-05 -3.3603620148798684e-05 0.0000000000000000e+00  -4.5621107108852030e-05 4.5573234059239057e-05 0.0000000000000000e+00  9.4173757741372192e-05 6.1391731005292303e-06 0.0000000000000000e+00  4.1374327787152906e-07 9.9071664939164684e-05 0.0000000000000000e+00  4.6551402782867967e-05 5.1498747834440377e-05 0.0000000000000000e+00  -3.6616840742109642e-06 -2.7989814852595961e-05 0.0000000000000000e+00  -1.6520663173329841e-05 -8.3766529528538921e-05 0.0000000000000000e+00  -4.5956885877174621e-05 -4.5993052328763194e-05 0.0000000000000000e+00  6.0688563942349666e-06 2.3018746691319502e-05 0.0000000000000000e+00  8.3716606138752698e-05 1.6472462314205281e-05 0.0000000000000000e+00  4.5919034815096754e-05 4.6064198168488785e-05 0.0000000000000000e+00  -8.3728127720393637e-05 -1.6556614416998652e-05 0.0000000000000000e+00  -6.6025967059038336e-05 1.0280739718668368e-05 0.0000000000000000e+00  -8.4116605176303580e-05 9.2379886072284340e-06 0.0000000000000000e+00  2.5638519913874157e-05 1.5741786034696520e-05 0.0000000000000000e+00  -3.5208161074095196e-05 3.7039663565759688e-05 0.0000000000000000e+00  -3.7088688781935528e-05 3.5160989642428149e-05 0.0000000000000000e+00  3.5213480115867964e-05 -3.7063362709248792e-05 0.0000000000000000e+00  3.5232366210705360e-05 3.6872940517277058e-05 0.0000000000000000e+00  1.5119937420362772e-05 8.5194771450060298e-05 0.0000000000000000e+00  -6.9899053061049752e-05 2.3160016411738202e-05 0.0000000000000000e+00  -7.0481132688450605e-05 -1.4352569139099219e-05 0.0000000000000000e+00  -5.4557698203161539e-06 5.1770946247445532e-05 0.0000000000000000e+00  5.1488110956693878e-05 -1.7244413759865819e-05 0.0000000000000000e+00  -6.6074079930625911e-05 -4.3876513790384615e-06 0.0000000000000000e+00  -9.2734624269248122e-05 -4.1994882482227075e-08 0.0000000000000000e+00  -1.5681376423113211e-05 -7.6277210185055899e-05 0.0000000000000000e+00  3.2611551832958842e-05 6.6819234488447931e-05 0.0000000000000000e+00  -7.1331627262089570e-09 -9.2775925892412929e-05 0.0000000000000000e+00  1.8015378877808399e-05 -5.7927998971432996e-05 0.0000000000000000e+00  -3.8412913460992669e-05 -4.2105079984704072e-08 0.0000000000000000e+00  -4.9314655269083991e-05 -3.9007665467686233e-05 0.0000000000000000e+00  4.1738865697730970e-06 -8.3600701481389861e-05 0.0000000000000000e+00  5.3333684246016766e-05 -3.9623398486397081e-05 0.0000000000000000e+00  9.1899177200762238e-05 -8.0696281726916760e-06 0.0000000000000000e+00  4.9164955713800111e-05 -1.3798143259883562e-05 0.0000000000000000e+00  -1.5229554673293996e-05 8.4507800132741241e-05 0.0000000000000000e+00  -1.0110176332240159e-05 -4.2472593781816328e-05 0.0000000000000000e+00  -1.3132363053008530e-05 8.5707041913080033e-05 0.0000000000000000e+00  4.0095721913236624e-06 -9.4159296205558390e-05 0.0000000000000000e+00  -1.9024068200330104e-05 8.0971712069008664e-05 0.0000000000000000e+00  -6.5414019842993017e-09 -9.2774821895060937e-05 0.0000000000000000e+00  -7.4461500360616610e-06 -4.8285689729093619e-05 0.0000000000000000e+00  9.9118822090706445e-05 8.3314440753666404e-07 0.0000000000000000e+00  3.8402822304394128e-05 -4.1723607432830760e-08 0.0000000000000000e+00  -3.2059755312052302e-05 4.2116210946369640e-05 0.0000000000000000e+00  -2.7698520253673195e-05 -6.3076386102304239e-05 0.0000000000000000e+00  -3.0055128400858277e-05 -3.0893553768852826e-05 0.0000000000000000e+00  -7.1344918361106408e-09 -3.8455636569871038e-05 0.0000000000000000e+00  -3.7769911955801799e-05 -5.2481823312762897e-05 0.0000000000000000e+00  2.9515419911637950e-05 -6.8894442594051911e-05 0.0000000000000000e+00  4.7310866153288211e-05 3.3920313667322022e-05 0.0000000000000000e+00  -3.5835472206568577e-05 5.6865874220851741e-05 0.0000000000000000e+00  3.7279163166066562e-06 -8.9292049895067283e-05 0.0000000000000000e+00  5.9052382687707190e-05 -4.0734454958682835e-05 0.0000000000000000e+00  -9.2836474862007873e-05 -6.1762138471515763e-07 0.0000000000000000e+00  -8.4261206250762927e-05 -1.5313574919813424e-05 0.0000000000000000e+00  -7.4666508086386406e-05 2.2403370271640547e-05 0.0000000000000000e+00  2.2582845212011350e-05 -7.4634792770591419e-05 0.0000000000000000e+00  3.0241254609501567e-05 6.7560217020240263e-05 0.0000000000000000e+00  7.1586185594914087e-05 -1.1073694125051234e-06 0.0000000000000000e+00  -7.2366800616851126e-09 3.8365496063154634e-05 0.0000000000000000e+00  3.8465866807763430e-05 1.7274523192686719e-05 0.0000000000000000e+00  9.0943931339274080e-05 7.4511021369330092e-06 0.0000000000000000e+00  6.7798403630376833e-05 2.9127101411818173e-05 0.0000000000000000e+00  -7.4773758218385910e-09 -3.8452139294633659e-05 0.0000000000000000e+00  -6.0366131775267860e-05 -3.3664993268679282e-05 0.0000000000000000e+00  -1.9928043769209153e-05 -8.0104140408645828e-05 0.0000000000000000e+00  7.8388195106550432e-05 -7.2995616474637742e-08 0.0000000000000000e+00  -6.7703271743322599e-05 -1.2293449952550741e-05 0.0000000000000000e+00  7.2996258799682426e-05 2.6820270707736434e-05 0.0000000000000000e+00  -5.1746736537512657e-05 4.7008887825827817e-05 0.0000000000000000e+00  -6.9957979403838553e-09 9.2687643629630389e-05 0.0000000000000000e+00  2.0278925287668261e-05 -8.0128878523557534e-05 0.0000000000000000e+00  7.1497952290101318e-05 -2.5116545411324365e-05 0.0000000000000000e+00  -3.3762512612336889e-05 2.1820012938584877e-05 0.0000000000000000e+00  -2.9637895321732494e-05 5.1250098935843085e-05 0.0000000000000000e+00  -1.2617416466492128e-05 -6.7789510897641695e-05 0.0000000000000000e+00  -7.1331627262089570e-09 -9.2775925892412929e-05 0.0000000000000000e+00  1.4213637513502955e-06 9.6697816000320509e-05 0.0000000000000000e+00  7.8112317283161590e-05 -2.0365988738189354e-05 0.0000000000000000e+00  -9.8643430681636632e-05 -2.1345093946620737e-07 0.0000000000000000e+00  -8.4477990268285529e-05 -1.5910891231704422e-05 0.0000000000000000e+00  -7.5717256293928267e-05 2.2756975762288813e-05 0.0000000000000000e+00  -5.5942794902726196e-05 -3.2361200126223052e-05 0.0000000000000000e+00  -6.2757551960216210e-09 3.8368850034882824e-05 0.0000000000000000e+00  3.8402822304394128e-05 -4.1723607432830760e-08 0.0000000000000000e+00  -3.8417309853587512e-05 -4.2588326232320969e-08 0.0000000000000000e+00  -7.4773758218385910e-09 -3.8452139294633659e-05 0.0000000000000000e+00  -1.7923777157587077e-06 -4.0198531349083212e-05 0.0000000000000000e+00  1.8338505921007988e-05 -6.9602990317260246e-05 0.0000000000000000e+00  -3.2618673149451387e-05 -6.6962738734336941e-05 0.0000000000000000e+00  -6.4601594214105692e-06 6.1542545867369496e-05 0.0000000000000000e+00  3.3947687971677149e-06 9.1942363281683403e-05 0.0000000000000000e+00  -7.7591519870673745e-06 3.7442819177957575e-05 0.0000000000000000e+00  -6.2757551960216210e-09 3.8368850034882824e-05 0.0000000000000000e+00  -3.8417309853587512e-05 -4.2588326232320969e-08 0.0000000000000000e+00  5.7048747771003490e-05 -4.1012450785108397e-06 0.0000000000000000e+00  3.7684240295112429e-05 -2.0365417570029612e-05 0.0000000000000000e+00  7.4117629785787033e-05 2.4528998621173919e-05 0.0000000000000000e+00  -1.0070051250474866e-05 -8.9940947923013802e-05 0.0000000000000000e+00  -3.2954671557596598e-06 -9.6644412018491975e-05 0.0000000000000000e+00  -3.7889893288378647e-05 -2.4360430331029211e-05 0.0000000000000000e+00  -3.9516505602904046e-05 -1.1547092948826962e-06 0.0000000000000000e+00  -6.6437672155752220e-09 3.8403246081658446e-05 0.0000000000000000e+00  -6.9957979403838553e-09 9.2687643629630389e-05 0.0000000000000000e+00  -7.0384587721038398e-09 9.2688895947690242e-05 0.0000000000000000e+00  3.8407093271509514e-05 -4.1459515950189579e-08 0.0000000000000000e+00  -7.2366800616851126e-09 3.8365496063154634e-05 0.0000000000000000e+00  -9.2734624269248122e-05 -4.1994882482227075e-08 0.0000000000000000e+00  -3.8412913460992669e-05 -4.2105079984704072e-08 0.0000000000000000e+00  -9.2736359855004872e-05 -4.1714629131659986e-08 0.0000000000000000e+00  -6.5414019842993017e-09 -9.2774821895060937e-05 0.0000000000000000e+00  -7.1344918361106408e-09 -3.8455636569871038e-05 0.0000000000000000e+00  -7.0384587721038398e-09 9.2688895947690242e-05 0.0000000000000000e+00  -9.2736359855004872e-05 -4.1714629131659986e-08 0.0000000000000000e+00  3.8407093271509514e-05 -4.1459515950189579e-08 0.0000000000000000e+00  9.2726366162138255e-05 -4.1728977226201113e-08 0.0000000000000000e+00  9.2724790068389348e-05 -4.1744737773249422e-08 0.0000000000000000e+00  9.2726366162138255e-05 -4.1728977226201113e-08 0.0000000000000000e+00  9.2724790068389348e-05 -4.1744737773249422e-08 0.0000000000000000e+00  3.5170844168205767e-05 4.5805707765158702e-05 0.0000000000000000e+00  -6.8443190917079382e-05 1.4395545762910781e-05 0.0000000000000000e+00  6.5288900100491390e-05 -2.6987069854163369e-05 0.0000000000000000e+00  3.6168937764925869e-05 -3.6218603673454525e-05 0.0000000000000000e+00  4.7577819778663655e-05 -4.3239341403138457e-05 0.0000000000000000e+00  1.1010240209421565e-05 -2.6960146485293360e-05 0.0000000000000000e+00  5.3000664627744727e-05 1.5153574608585164e-05 0.0000000000000000e+00  -2.2373121920131076e-05 7.4154006935564084e-05 0.0000000000000000e+00  -9.3018626420755013e-05 1.2202130621026283e-06 0.0000000000000000e+00  -3.5021534273064513e-05 8.9703254428847844e-06 0.0000000000000000e+00  1.1901123475431519e-05 8.8421370722958123e-05 0.0000000000000000e+00  1.9294123030806011e-05 7.7778345182514746e-05 0.0000000000000000e+00  -1.5590588338218704e-05 6.6966846455687967e-05 0.0000000000000000e+00  -4.1508568065450612e-05 -2.6610190641936961e-05 0.0000000000000000e+00  -2.1567329515578139e-05 4.3783316261251807e-06 0.0000000000000000e+00  -3.7747048369862148e-05 -2.1250270113624154e-05 0.0000000000000000e+00  7.9076514944659721e-05 -1.1711523283859434e-05 0.0000000000000000e+00  2.5224187135388136e-05 -6.4681052965918150e-05 0.0000000000000000e+00  2.4929188261233383e-05 5.5111268306040784e-05 0.0000000000000000e+00  1.9383407872562080e-05 6.9745872111679914e-05 0.0000000000000000e+00  -6.0466376977264800e-05 2.9921174903133030e-05 0.0000000000000000e+00  -6.9881270793011885e-06 8.9434370757760005e-06 0.0000000000000000e+00  1.1308157151096410e-06 9.3782422395185389e-05 0.0000000000000000e+00  3.3023166636607536e-06 -1.1240995111286424e-05 0.0000000000000000e+00  -2.9363595830392254e-05 6.5849964911595163e-05 0.0000000000000000e+00  -6.1669376414226308e-05 -3.8263000320025063e-05 0.0000000000000000e+00  1.5683075280576751e-05 -8.3686303604348338e-05 0.0000000000000000e+00  -1.6752207747081966e-05 -8.3153689840963725e-05 0.0000000000000000e+00  4.4551684329155694e-05 5.4075828403909394e-05 0.0000000000000000e+00  -1.7025055884406070e-06 4.6209689642809247e-05 0.0000000000000000e+00  1.8597419444898277e-05 -2.8354077919188605e-05 0.0000000000000000e+00  6.4204009502314582e-05 -3.3941240021591360e-05 0.0000000000000000e+00  2.4936883214745887e-05 -6.4078949305055265e-05 0.0000000000000000e+00  -4.8749418930863006e-05 -5.1354684760154913e-05 0.0000000000000000e+00  -3.9171812655347958e-05 3.1468761517523313e-05 0.0000000000000000e+00  -2.5187751071358351e-05 6.3294429487675263e-05 0.0000000000000000e+00  2.7680992868734581e-05 4.8816117775626377e-05 0.0000000000000000e+00  -9.0990162415526457e-05 9.3373078050525226e-06 0.0000000000000000e+00  5.5302054249468050e-05 1.1947789886381611e-05 0.0000000000000000e+00  4.3444295541987631e-05 5.2829613519873690e-05 0.0000000000000000e+00  -1.5802581568715673e-05 7.9928241897458835e-05 0.0000000000000000e+00  -8.7303276782769244e-05 6.7338056161888501e-06 0.0000000000000000e+00  9.4076832557380850e-05 -3.8900069904905585e-06 0.0000000000000000e+00  1.7559797075229020e-05 6.5331122929870386e-05 0.0000000000000000e+00  6.5313829783477203e-05 1.8808105627125885e-05 0.0000000000000000e+00  3.2006564569962210e-05 1.3741995589498651e-05 0.0000000000000000e+00  1.7515571875373497e-05 4.3240534145787652e-05 0.0000000000000000e+00  -7.4084392031185974e-05 2.5344909924485989e-05 0.0000000000000000e+00  -5.8653269071783940e-05 6.5524650608925951e-06 0.0000000000000000e+00  1.6508202887929729e-05 -6.1274866727602202e-05 0.0000000000000000e+00  -5.7369350810789629e-07 9.4703785012335387e-05 0.0000000000000000e+00  -9.4927743584311740e-05 -2.2013783755502621e-06 0.0000000000000000e+00  4.6528121659407289e-06 -9.4364482666593210e-05 0.0000000000000000e+00  -5.3986126340044996e-06 -9.4597205238438145e-05 0.0000000000000000e+00  2.0684827539302291e-06 -1.9434296943582764e-05 0.0000000000000000e+00  3.7687692382621025e-05 6.0264894994299115e-05 0.0000000000000000e+00  -6.2350817080051308e-05 2.5269953680236963e-05 0.0000000000000000e+00  -8.0617807893163288e-05 1.4390625262207630e-05 0.0000000000000000e+00  -2.2959809911569483e-05 7.3237977920435429e-05 0.0000000000000000e+00  -4.0747269951435466e-06 5.1518774324122058e-05 0.0000000000000000e+00  -2.7074916092436472e-06 7.8353351638172695e-05 0.0000000000000000e+00  -7.4690427488777400e-05 -2.0184293463430655e-05 0.0000000000000000e+00  -1.8641408375047896e-05 -7.4731024966823639e-05 0.0000000000000000e+00  2.9947550217701926e-05 -1.2409321288022740e-05 0.0000000000000000e+00  2.2827642731143918e-05 -5.6747490231619260e-05 0.0000000000000000e+00  6.9615919171346611e-05 -2.2482286539390718e-05 0.0000000000000000e+00  3.2368536016250680e-06 -8.5242307286534564e-05 0.0000000000000000e+00  8.9927013919783303e-05 1.0365837413628886e-05 0.0000000000000000e+00  7.5252652093989352e-05 -2.3612074393268832e-05 0.0000000000000000e+00  -7.8962318875426736e-05 -1.3044262398707471e-05 0.0000000000000000e+00  3.7015495684267643e-05 6.3277161150597570e-05 0.0000000000000000e+00  2.1926108076176389e-05 7.0830781819914795e-05 0.0000000000000000e+00  2.4547984053133711e-06 8.9202252823233327e-05 0.0000000000000000e+00  2.4032176713023823e-07 9.7394623438691713e-05 0.0000000000000000e+00  -4.8775049886202003e-06 9.5292862634216210e-05 0.0000000000000000e+00  -2.9408109680727415e-05 6.0430897779629267e-05 0.0000000000000000e+00  -5.6560132933086130e-05 4.3280489606937382e-05 0.0000000000000000e+00  -8.5219843276138722e-05 3.6498135982957883e-06 0.0000000000000000e+00  4.6297514775160210e-05 7.2269083671639997e-06 0.0