<?xml version="1.0"?>
<VTKFile type="UnstructuredGrid"  version="0.1"  >
<UnstructuredGrid>
<Piece  NumberOfPoints="5315" NumberOfCells="10372">
<Points>
<DataArray  type="Float64"  NumberOfComponents="3"  format="ascii">-1 -1 0  1 -1 0  1 1 0  -1 1 0  0 -1 0  1 0 0  0 1 0  -1 0 0  0 0 0  -1 -0.5 0  -0.5 -1 0  -0.5 1 0  -1 0.5 0  1 -0.5 0  0.5 -1 0  1 0.5 0  0.5 1 0  0.4166666666666666 -0.4166666666666667 0  -0.4166666666666667 0.4166666666666667 0  -0.25 -0.5 0  0.5 0.25 0  -0.4861111111111112 -0.06944444444444445 0  0.0732758620689655 0.507183908045977 0  -0.625 -0.625 0  0.625 0.625 0  0.7380952380952381 -0.25 0  -0.7099116161616161 0.2105429292929293 0  -0.25 0.7380952380952381 0  0.105392156862745 -0.6348039215686275 0  0.6770833333333334 -0.6770833333333333 0  -0.6770833333333334 0.6770833333333334 0  0.3472222222222222 -0.06944444444444446 0  -0.7264957264957265 -0.3044871794871795 0  0.3141940982507127 0.7297313660835709 0  0.02049587951122483 -0.3227479397556124 0  -0.2690972222222223 0.1475694444444444 0  0.3859500089908372 -0.7274430156831472 0  -0.2228477945123298 -0.1761765495248019 0  0.2182539682539683 0.1884920634920635 0  0.75 0.375 0  -0.145442219440968 -0.7602211097204841 0  0.7088913690476191 0.0427827380952381 0  -0.75 -1 0  -1 -0.75 0  1 0.75 0  0.75 1 0  -0.7439982703698937 -0.04614153195464455 0  -0.4609235096577606 -0.3356498099556895 0  0.4063134471431929 0.4895621842856023 0  0.25 -1 0  -0.25 -1 0  -0.75 1 0  0.75 -1 0  -1 -0.25 0  -1 0.25 0  1 -0.25 0  -0.25 1 0  1 -0.75 0  -1 0.75 0  0.25 1 0  1 0.25 0  -0.4041423272138783 -0.7597141090712928 0  0.06500839607911253 0.7578103030529481 0  -0.1572801182352047 0.3838997021864289 0  -0.6528005242053915 0.4409494757946086 0  -0.4930160984848485 0.1544744318181818 0  -0.4732142857142858 0.7752976190476191 0  0.6398809523809523 -0.4538690476190476 0  0.5166054117396399 -0.2161233620965164 0  -0.002273787244753427 0.2232363985975174 0  0.1500564496765022 -0.1524955293952667 0  0.2016720420046758 -0.4410343282803009 0  -0.08495178036419618 0.6274139771124571 0  -0.8367311471133162 0.3642591720794645 0  -0.8333333333333334 -0.625 0  -0.594323836800685 -0.8231079456002283 0  -0.4466957714776065 -0.5349126855671806 0  0.8125 0.5625 0  0.78125 0.78125 0  0.5091392650016769 0.7947130883338923 0  0.125 -0.8382681931833136 0  -0.8184523809523809 -0.8184523809523809 0  -0.07781530426104531 -0.5819319697006881 0  0.5085055196703295 0.04967610411902112 0  0.2918471072074933 -0.276017202318847 0  0.5120763537765269 -0.5898771553229597 0  0.625 -0.8585349462365591 0  0.8158532234335381 -0.8158532234335381 0  -0.5198088446315396 0.5739411553684605 0  -0.8585349462365591 0.625 0  -0.8150493805516597 0.8156205699829586 0  0.8585349462365591 -0.625 0  -0.2688268348649726 0.5439331383603209 0  0.8242100426758139 -0.4436043596336612 0  0.5833756314287952 0.4479378157143976 0  0.8690476190476191 -0.125 0  -0.125 0.8690476190476191 0  -0.8692745600729823 0.125 0  0.8696725120759167 0.125 0  -0.625 0.8711516477451908 0  0.2339522463269718 0.3879558377955778 0  0.2453709502295031 0.5655822922838026 0  0.1730610651637797 0.02021709580868947 0  0.3245402594056757 -0.5644672020485209 0  -0.7291666666666666 -0.4816595441595442 0  -1 -0.375 0  -0.5811140848639904 -0.2127276307675001 0  0.673332592838314 0.2158348143233718 0  0.375 1 0  -0.5714768890989919 0.2985103444040069 0  -1 -0.125 0  -0.8453692574786325 -0.1875 0  -0.3144549134065865 -0.02408675326008025 0  -0.2898414972096258 -0.3336092734780093 0  -0.1075052092206287 -0.4224330421314983 0  -0.05043970703604117 -0.1652278959397459 0  0.6459672950297897 -0.1113415301525317 0  0.4645210271029513 0.6398480556579343 0  0.3512863754411909 0.0937979496253573 0  -0.6063160985568274 0.03891469652249891 0  -0.3428819444444445 0.8690476190476191 0  0.625 1 0  -0.1602164796159982 0.02697860906625157 0  0.04648110064133829 -0.4808416424239687 0  1 0.875 0  -0.3836102479201657 0.6484936449177356 0  -0.3776011723096096 0.263078478984336 0  -0.6024978259969829 -0.3949628096211138 0  0.125 1 0  0.2010781308272777 0.8456221018461906 0  0.2822509696388829 -0.845902544691141 0  -0.3285533674953515 -0.6289773550938936 0  0.3461306793221754 0.278777492464833 0  0.4737475672408696 -0.8508448959534423 0  0.2384632828836344 -0.7029523187242811 0  -0.004777287059791593 0.3759269695907358 0  -0.8499735021850066 -0.3912320205328522 0  0.1222536293721587 0.2963971539625205 0  -0.3769456520999688 -0.203572526805711 0  -0.2749617205755651 -0.8464290792698902 0  0.004805888512766143 -0.747174355248311 0  -0.125 -1 0  -0.06001061822252458 -0.8724007765244854 0  0.875 0.4375 0  0.854421179608893 0.271342359217786 0  0.875 1 0  -0.1499861095763589 0.2358309656934888 0  0.3381943639137225 0.8663061796405532 0  -0.7853090110442228 0.4998412775277108 0  0.7398165998560814 -0.5535192694951373 0  0.1580042122341573 -0.3100246140259917 0  -0.7291666666666667 -0.7142857142857142 0  -0.375 -1 0  0.6483368386154684 0.8514905990110488 0  -0.1295370103291928 -0.2826118305021242 0  0.07458201853700455 0.1123894386563915 0  0.6146465857036327 -0.3161203659316075 0  0.5551898493894731 -0.740296118159085 0  0.375 -1 0  0.482702798370208 -0.084133350091034 0  0.87890625 0.68359375 0  -0.05917195534525846 0.4971092425697621 0  0.1260710309213975 0.6343750312956699 0  0.8690476190476191 -0.3077066815262848 0  -0.2912010232560567 0.3668168386732139 0  -0.875 1 0  -1 0.875 0  1 -0.875 0  0.875 -1 0  -0.8689564281364567 -0.006189266075306407 0  -0.7449425635110547 0.08458938160051771 0  -0.7150266761936593 -0.1739444581417552 0  -0.5260034831318311 -0.711099823962112 0  -0.4724626808827322 -0.871722230709409 0  0.4734436795977052 0.377714794132168 0  -0.875 -1 0  -1 -0.875 0  0.6927189078571988 0.5156567235715964 0  -0.3742497615796874 -0.4296005251260107 0  -0.1969436423297711 -0.6387157229772615 0  -0.6179496409766825 -0.08933356056510935 0  -0.424405057115988 0.04452428810878029 0  -0.08479048335844169 0.1279607007132633 0  0.003830300099055113 0.8712085230656206 0  0.8748778838820267 -1.379218479898026e-05 0  -0.375 1 0  -0.625 1 0  1 0.125 0  -0.125 1 0  1 -0.375 0  1 -0.125 0  1 -0.625 0  0.625 -1 0  0.125 -1 0  -0.625 -1 0  -1 -0.625 0  -1 0.125 0  -1 0.375 0  -1 0.625 0  1 0.375 0  1 0.625 0  0.6325660748712082 0.3335187599557389 0  -0.06420945895056573 0.7549874027425891 0  -0.8769015540914771 0.2478802253893416 0  0.871875 0.871875 0  -0.6868091492840067 0.3270978624973681 0  -0.5363597469565949 0.412994850055505 0  -0.6803734992638302 0.5574295000651103 0  -0.7076253581162534 -0.8803439094224437 0  -0.8778089002295137 -0.5106896447504627 0  -0.3860184984222981 0.530566778071246 0  0.6109900617121508 0.1128453077697081 0  0.3896945134930274 -0.1915382873255086 0  0.7605656944697778 -0.06822134873122943 0  0.3576151269893478 0.5948388411612135 0  -0.5689902680792265 -0.5143596830118065 0  0.6262446286847614 -0.5735657901943212 0  0.2030558252325225 -0.5625263842513452 0  0.6123273142928579 0.7407533260723429 0  0.4016460890123554 -0.3042863223111857 0  -0.59039693199147 0.7578418819188018 0  0.7276932493917544 -0.3705808024528924 0  0.5222536818742854 -0.4713886230400014 0  -0.5101986527137737 0.8848365765607674 0  0.510560172809238 0.5356013299918891 0  -0.3603569195756083 0.75823710606415 0  0.1967279277813232 0.728226870058472 0  -0.6086880986371127 0.1545624071548516 0  -0.38105366729386 0.1511189987807864 0  -0.2944659463671584 -0.7359061804869591 0  0.5060729154966499 -0.3475227845833823 0  -0.09281616240412746 -0.06197858250969457 0  0.7649739583333334 0.6673177083333334 0  0.7628906249999999 0.890234375 0  -0.2666864184909611 0.2585504071132311 0  0.3635064892129658 0.3878003602709461 0  -0.2339409722222222 0.8901937905844155 0  -0.1718792125974916 -0.8957733325456778 0  0.1001768566329531 0.4023510017391879 0  0.3120260172693757 -0.4540546875576884 0  0.7804062804433681 0.1896628610854537 0  0.4087715451998049 0.187961780041608 0  -0.1584963477271457 0.5451611892421655 0  -0.8926817849258324 0.463022006336401 0  0.2338091473445219 -0.07576267331277289 0  0.08171112182813692 -0.2349087687359925 0  0.04635385178956847 -0.1044635073718474 0  -0.4377391632114205 -0.6448874471423088 0  -0.1907678351227189 0.6480215912813945 0  0.300605946475244 0.4741444604171038 0  -0.2145033720757486 -0.06751709909419711 0  0.6069191921170397 -0.005492331448357812 0  0.0214718770761248 0.6032397936031719 0  0.5476675683364878 0.8992752415326501 0  0.4387475014316537 0.9093708953002239 0  -0.4932997685306436 -0.4381009159993523 0  0.2515197695339056 -0.1791673369138964 0  -0.7291666666666667 -0.6088789682539681 0  -0.9166666666666667 -0.6875 0  0.620579540363709 -0.2122431523583302 0  -0.484950136419973 0.6719440339397442 0  0.2857044415400258 0.0137589173127316 0  -0.8945708364098356 -0.288306105327986 0  0.4043102720140535 0.7842914560451557 0  0.04123256238752064 -0.9026968245801402 0  0.2003676884403109 -0.9091888601740487 0  0.1068775558538842 -0.7373377130403223 0  -0.4804566783514427 -0.1763307203045643 0  0.108286342087769 -0.3993789328997278 0  -0.191883080105361 -0.3640821726430649 0  -0.07025064492006244 0.2984876656890053 0  -0.7039324641409584 0.788312126296613 0  -0.7311286585775438 0.8932502354831682 0  0.5171409396884947 0.1503852691889257 0  0.4229392823658633 -0.003216522184234835 0  -0.5621736087218259 -0.919558629836806 0  -0.626474064879544 -0.7266572613636506 0  0.2446828746617422 0.2867616783302419 0  0.1759429608742923 0.4776611759306416 0  -0.3468240303741654 -0.5260416435617549 0  -0.7465808808425306 0.4069574477998361 0  -0.7819962170660292 0.2802441065650652 0  -0.3742623214119594 -0.8547800509641984 0  0.1014498009713561 0.8506721983266377 0  0.4285217620918213 -0.5230190595570253 0  0.4091738370487775 -0.6256346204225141 0  0.78125 0.46875 0  0.90625 0.53125 0  -0.4791801348852565 0.2553992655702126 0  0.7843318610782772 -0.7086046956885941 0  0.8909728264971901 -0.7355183796514634 0  0.7041908166528879 -0.7830649143180282 0  0.731182135
[...]
<PointData  Vectors="f_21"> 
<DataArray  type="Float64"  Name="f_21"  NumberOfComponents="3" format="ascii">-8.4459036784861728e-09 -4.1402468402655726e-08 0.0000000000000000e+00  -8.4459036784861728e-09 -4.1402468402655726e-08 0.0000000000000000e+00  -8.4459036784861728e-09 -4.1402468402655726e-08 0.0000000000000000e+00  -8.4459036784861728e-09 -4.1402468402655726e-08 0.0000000000000000e+00  -1.1002182119699887e-08 -4.7629583007588482e-08 0.0000000000000000e+00  -1.0471868695009354e-09 -4.0576715703463257e-08 0.0000000000000000e+00  -1.1002182119699887e-08 -4.7629583007588482e-08 0.0000000000000000e+00  -1.0471868695009354e-09 -4.0576715703463257e-08 0.0000000000000000e+00  -4.3540094610587217e-09 -4.6432618608834035e-08 0.0000000000000000e+00  -3.9432299704941537e-04 -4.0250201121427230e-08 0.0000000000000000e+00  -9.0443388836499715e-09 3.9427716156720277e-04 0.0000000000000000e+00  -9.0443388836499715e-09 3.9427716156720277e-04 0.0000000000000000e+00  3.9431344266493669e-04 -4.0346529528482328e-08 0.0000000000000000e+00  -3.9432299704941537e-04 -4.0250201121427230e-08 0.0000000000000000e+00  -8.9386897381934553e-09 -3.9436423313454565e-04 0.0000000000000000e+00  3.9431344266493669e-04 -4.0346529528482328e-08 0.0000000000000000e+00  -8.9386897381934553e-09 -3.9436423313454565e-04 0.0000000000000000e+00  9.8576858840000121e-05 9.8534533408095487e-05 0.0000000000000000e+00  -9.8587425514705106e-05 -9.8620925602626054e-05 0.0000000000000000e+00  2.7882301367590810e-04 -4.3294398436973695e-08 0.0000000000000000e+00  -3.2376530537619025e-09 2.7878120569652223e-04 0.0000000000000000e+00  3.7218576932799186e-06 -3.8464784929831359e-04 0.0000000000000000e+00  -3.8382479119199831e-04 -2.0782574262563723e-06 0.0000000000000000e+00  -1.3941889141285435e-04 1.3937096356636338e-04 0.0000000000000000e+00  1.3940560673712495e-04 -1.3945619339382622e-04 0.0000000000000000e+00  -1.8965129027273439e-04 2.0435114701233419e-04 0.0000000000000000e+00  1.4839936515372633e-04 -2.4595698429748334e-04 0.0000000000000000e+00  -2.0440318536914880e-04 1.8960371502011296e-04 0.0000000000000000e+00  3.3995383783310605e-04 -5.2724541475272306e-05 0.0000000000000000e+00  -1.7683290458760762e-04 -1.7687146953877171e-04 0.0000000000000000e+00  1.7681852004434927e-04 1.7678757755922134e-04 0.0000000000000000e+00  3.9406864034130974e-05 3.4142823793907167e-04 0.0000000000000000e+00  -2.1043322304329433e-04 -1.7215093243499330e-04 0.0000000000000000e+00  -1.6314590520018338e-04 -2.1742650457160450e-04 0.0000000000000000e+00  3.3404930936894723e-04 1.3363258915314573e-05 0.0000000000000000e+00  -1.1698631095650831e-04 -2.6394288151681649e-04 0.0000000000000000e+00  1.0444832269358083e-04 -2.4202021730487826e-04 0.0000000000000000e+00  1.5851728855759655e-04 -2.1617123067889041e-04 0.0000000000000000e+00  -1.7035509217529614e-04 2.0711739567701003e-04 0.0000000000000000e+00  2.5759810065717226e-04 1.0665827633441911e-04 0.0000000000000000e+00  2.4205199138524892e-04 1.2685467911428597e-04 0.0000000000000000e+00  3.2239515638114849e-05 3.0955142359750059e-04 0.0000000000000000e+00  -1.0426969028846946e-08 2.7878615369208965e-04 0.0000000000000000e+00  -2.7883276463071016e-04 -4.0291903542777826e-08 0.0000000000000000e+00  2.7881637211874839e-04 -4.0100860742929764e-08 0.0000000000000000e+00  -9.9004605917477804e-09 -2.7886765485090177e-04 0.0000000000000000e+00  -3.9509526543696547e-05 -2.8109608532583016e-04 0.0000000000000000e+00  4.1987389161396369e-05 -1.9324638973959121e-04 0.0000000000000000e+00  -1.1433301822784454e-04 1.2324441681562783e-05 0.0000000000000000e+00  -9.3842100653679833e-09 -2.7887284272427941e-04 0.0000000000000000e+00  -8.3087696397530325e-09 2.7878107406519302e-04 0.0000000000000000e+00  -1.0426969028846946e-08 2.7878615369208965e-04 0.0000000000000000e+00  -9.9004605917477804e-09 -2.7886765485090177e-04 0.0000000000000000e+00  -2.7882706433927983e-04 -4.0625565456150509e-08 0.0000000000000000e+00  2.7882309763549245e-04 -3.9780665026535411e-08 0.0000000000000000e+00  -2.7882706433927983e-04 -4.0625565456150509e-08 0.0000000000000000e+00  -8.3087696397530325e-09 2.7878107406519302e-04 0.0000000000000000e+00  -2.7883276463071016e-04 -4.0291903542777826e-08 0.0000000000000000e+00  2.7881637211874839e-04 -4.0100860742929764e-08 0.0000000000000000e+00  -9.3842100653679833e-09 -2.7887284272427941e-04 0.0000000000000000e+00  2.7882309763549245e-04 -3.9780665026535411e-08 0.0000000000000000e+00  8.0136206209698968e-05 2.7423468537779205e-04 0.0000000000000000e+00  -2.6626055215920783e-04 -5.7967093112224490e-05 0.0000000000000000e+00  -3.2432242161065355e-04 -6.6751498747564663e-05 0.0000000000000000e+00  1.7897211225987575e-04 -6.4551491708554460e-05 0.0000000000000000e+00  -4.0378739986711040e-06 -3.4874657881183617e-04 0.0000000000000000e+00  -2.1508867104872291e-05 2.9897778483518330e-04 0.0000000000000000e+00  -1.6600228318223369e-04 5.1491373707666313e-05 0.0000000000000000e+00  -1.2914547190491230e-05 3.0640410648344145e-04 0.0000000000000000e+00  -2.5442420607034243e-04 -2.1995226388517344e-06 0.0000000000000000e+00  1.6193790004993076e-04 1.5887114934946245e-04 0.0000000000000000e+00  3.1234933690308373e-04 4.2950723237691382e-05 0.0000000000000000e+00  -3.5029920390272602e-04 4.0478095741113111e-05 0.0000000000000000e+00  3.1280389425129460e-04 -8.0076952865575476e-05 0.0000000000000000e+00  -3.1550199316568878e-04 7.5409023108722641e-05 0.0000000000000000e+00  -6.0753901017746151e-05 3.2034061597463573e-04 0.0000000000000000e+00  6.5324706825182721e-05 4.2516944950728760e-05 0.0000000000000000e+00  3.2155770369078054e-04 -4.2778934573622107e-05 0.0000000000000000e+00  1.9336270123815761e-04 -1.9341292188360600e-04 0.0000000000000000e+00  6.7950376331868163e-06 -3.1503213737964090e-04 0.0000000000000000e+00  1.7723068530622031e-04 -1.3188410545229829e-04 0.0000000000000000e+00  -1.7921000659671917e-04 1.7916326348230006e-04 0.0000000000000000e+00  3.6998616916947074e-04 2.4248824391752033e-05 0.0000000000000000e+00  1.6364322332953429e-06 3.8934269001591120e-04 0.0000000000000000e+00  1.8289348352276566e-04 2.0244910711149670e-04 0.0000000000000000e+00  -1.4370639358865250e-05 -1.0983190637607906e-04 0.0000000000000000e+00  -6.4885505336565548e-05 -3.2895790696417754e-04 0.0000000000000000e+00  -1.8052920506121049e-04 -1.8056291233624894e-04 0.0000000000000000e+00  2.3858688162266017e-05 9.0557400951427137e-05 0.0000000000000000e+00  3.2890662501519212e-04 6.4837727265690883e-05 0.0000000000000000e+00  1.8041624575138306e-04 1.8109203530462440e-04 0.0000000000000000e+00  -3.2891963353335701e-04 -6.4919093795747759e-05 0.0000000000000000e+00  -2.5937393117878748e-04 4.0517543199596901e-05 0.0000000000000000e+00  -3.3044813786205142e-04 3.6417920382071135e-05 0.0000000000000000e+00  1.0073862994630718e-04 6.1971502280463498e-05 0.0000000000000000e+00  -1.3830838688783383e-04 1.4563944423591699e-04 0.0000000000000000e+00  -1.4568835733942597e-04 1.3826379842426885e-04 0.0000000000000000e+00  1.3835125892146160e-04 -1.4548333789326552e-04 0.0000000000000000e+00  1.3842544740319711e-04 1.4498446016232312e-04 0.0000000000000000e+00  5.9418908772529504e-05 3.3482158322614724e-04 0.0000000000000000e+00  -2.7459158467216049e-04 9.1117727567614786e-05 0.0000000000000000e+00  -2.7687620913854238e-04 -5.6254532705876752e-05 0.0000000000000000e+00  -2.1422762812190305e-05 2.0351894381535958e-04 0.0000000000000000e+00  2.0229092221546156e-04 -6.7615861451121587e-05 0.0000000000000000e+00  -2.5956565092595611e-04 -1.7113060085655439e-05 0.0000000000000000e+00  -3.6430559674972726e-04 -4.0709158652872159e-08 0.0000000000000000e+00  -6.1595031752915288e-05 -2.9953786069640900e-04 0.0000000000000000e+00  1.2813013007513443e-04 2.6263369871825558e-04 0.0000000000000000e+00  -9.5279235013251597e-09 -3.6434983615236054e-04 0.0000000000000000e+00  7.0788489367258075e-05 -2.2745089779936718e-04 0.0000000000000000e+00  -1.5089859670991065e-04 -4.1122839493184545e-08 0.0000000000000000e+00  -1.9372702280725460e-04 -1.5312183271747883e-04 0.0000000000000000e+00  1.6408197780573863e-05 -3.2830605585093401e-04 0.0000000000000000e+00  2.0953881397668377e-04 -1.5553628398721800e-04 0.0000000000000000e+00  3.6104838409252871e-04 -3.1572231511837291e-05 0.0000000000000000e+00  1.9316041309031136e-04 -5.4076862890912249e-05 0.0000000000000000e+00  -5.9820383394074822e-05 3.3212532594058389e-04 0.0000000000000000e+00  -3.9701690138574332e-05 -1.6672857959975095e-04 0.0000000000000000e+00  -5.1580676200508955e-05 3.3683972860508161e-04 0.0000000000000000e+00  1.5762879028480328e-05 -3.6978973484237595e-04 0.0000000000000000e+00  -7.4719541788439891e-05 3.1823374812311756e-04 0.0000000000000000e+00  -7.1939908554866768e-09 -3.6434808704717195e-04 0.0000000000000000e+00  -2.9242223204119022e-05 -1.8956568817719152e-04 0.0000000000000000e+00  3.8941224392569773e-04 3.4041992434666718e-06 0.0000000000000000e+00  1.5088815844181355e-04 -3.9615956410383514e-08 0.0000000000000000e+00  -1.2593291491304779e-04 1.6558533744940422e-04 0.0000000000000000e+00  -1.0880383521136344e-04 -2.4767484441607024e-04 0.0000000000000000e+00  -1.1806228138962972e-04 -1.2124343720887980e-04 0.0000000000000000e+00  -9.5691416812260921e-09 -1.5094579188520805e-04 0.0000000000000000e+00  -1.4836458315438969e-04 -2.0604920929020632e-04 0.0000000000000000e+00  1.1597203443007949e-04 -2.7052823864615093e-04 0.0000000000000000e+00  1.8588096153261219e-04 1.3338758248885945e-04 0.0000000000000000e+00  -1.4077047618636242e-04 2.2353420371797351e-04 0.0000000000000000e+00  1.4663164860627023e-05 -3.5066385082003164e-04 0.0000000000000000e+00  2.3200965757364498e-04 -1.5989852197354203e-04 0.0000000000000000e+00  -3.6470385122282039e-04 -2.2953981615886554e-06 0.0000000000000000e+00  -3.3101672873576005e-04 -6.0037074986452819e-05 0.0000000000000000e+00  -2.9332218303685021e-04 8.8145346330274454e-05 0.0000000000000000e+00  8.8729916476590755e-05 -2.9308327831965538e-04 0.0000000000000000e+00  1.1882349748679687e-04 2.6554609734917920e-04 0.0000000000000000e+00  2.8125047753535732e-04 -4.2194464479439117e-06 0.0000000000000000e+00  -9.9931360594542179e-09 1.5085298080002617e-04 0.0000000000000000e+00  1.5113494375482066e-04 6.7995452394670921e-05 0.0000000000000000e+00  3.5729763928122102e-04 2.9397635607356163e-05 0.0000000000000000e+00  2.6636600288736768e-04 1.1455425325828702e-04 0.0000000000000000e+00  -1.0842430711230749e-08 -1.5093811885079811e-04 0.0000000000000000e+00  -2.3714234022194515e-04 -1.3212663623325189e-04 0.0000000000000000e+00  -7.8270854065708138e-05 -3.1456707413758629e-04 0.0000000000000000e+00  3.0797198947268693e-04 -1.6274546660359254e-07 0.0000000000000000e+00  -2.6596525913232845e-04 -4.8169754546953807e-05 0.0000000000000000e+00  2.8678522979175416e-04 1.0549751225057136e-04 0.0000000000000000e+00  -2.0327628283079024e-04 1.8480370948510303e-04 0.0000000000000000e+00  -8.9854254664952832e-09 3.6426071639610751e-04 0.0000000000000000e+00  7.9686424962907524e-05 -3.1466722547412058e-04 0.0000000000000000e+00  2.8089862575651043e-04 -9.8542975338787185e-05 0.0000000000000000e+00  -1.3262824061495152e-04 8.5853436403088125e-05 0.0000000000000000e+00  -1.1642404729716478e-04 2.0146926117842179e-04 0.0000000000000000e+00  -4.9552298158953096e-05 -2.6618971762976422e-04 0.0000000000000000e+00  -9.5279235013251597e-09 -3.6434983615236054e-04 0.0000000000000000e+00  5.5945718187034632e-06 3.8001686674821996e-04 0.0000000000000000e+00  3.0689020020290562e-04 -7.9884885453956450e-05 0.0000000000000000e+00  -3.8751568789768814e-04 -7.0802032548596945e-07 0.0000000000000000e+00  -3.3186360708286559e-04 -6.2376289370579067e-05 0.0000000000000000e+00  -2.9745175476098007e-04 8.9528359353849372e-05 0.0000000000000000e+00  -2.1976326871086223e-04 -1.2700603361696176e-04 0.0000000000000000e+00  -6.1161015786922998e-09 1.5085995260536488e-04 0.0000000000000000e+00  1.5088815844181355e-04 -3.9615956410383514e-08 0.0000000000000000e+00  -1.5090873702562849e-04 -4.3000138267577515e-08 0.0000000000000000e+00  -1.0842430711230749e-08 -1.5093811885079811e-04 0.0000000000000000e+00  -7.0308099595360151e-06 -1.5780039199275473e-04 0.0000000000000000e+00  7.2055887307035695e-05 -2.7331843334247094e-04 0.0000000000000000e+00  -1.2813517415279389e-04 -2.6294590985316649e-04 0.0000000000000000e+00  -2.5363183963057750e-05 2.4190225675492863e-04 0.0000000000000000e+00  1.3354384716044789e-05 3.6133172293592716e-04 0.0000000000000000e+00  -3.0468578112114983e-05 1.4722760542128441e-04 0.0000000000000000e+00  -6.1161015786922998e-09 1.5085995260536488e-04 0.0000000000000000e+00  -1.5090873702562849e-04 -4.3000138267577515e-08 0.0000000000000000e+00  2.2413785377005323e-04 -1.5985183328324151e-05 0.0000000000000000e+00  1.4805923340939148e-04 -7.9880164012965157e-05 0.0000000000000000e+00  2.9119424214152123e-04 9.6494184912006213e-05 0.0000000000000000e+00  -3.9550667180852665e-05 -3.5321749141628360e-04 0.0000000000000000e+00  -1.2935664391573384e-05 -3.7955088694676835e-04 0.0000000000000000e+00  -1.4884304296644487e-04 -9.5572044783449422e-05 0.0000000000000000e+00  -1.5522628483978040e-04 -4.4054619755471962e-06 0.0000000000000000e+00  -1.5419955652539893e-08 1.5099639629652663e-04 0.0000000000000000e+00  -8.9854254664952832e-09 3.6426071639610751e-04 0.0000000000000000e+00  -9.1953681220146035e-09 3.6426310114936496e-04 0.0000000000000000e+00  1.5089767348049098e-04 -3.8568460951516320e-08 0.0000000000000000e+00  -9.9931360594542179e-09 1.5085298080002617e-04 0.0000000000000000e+00  -3.6430559674972726e-04 -4.0709158652872159e-08 0.0000000000000000e+00  -1.5089859670991065e-04 -4.1122839493184545e-08 0.0000000000000000e+00  -3.6430944322996868e-04 -3.9621554148522912e-08 0.0000000000000000e+00  -7.1939908554866768e-09 -3.6434808704717195e-04 0.0000000000000000e+00  -9.5691416812260921e-09 -1.5094579188520805e-04 0.0000000000000000e+00  -9.1953681220146035e-09 3.6426310114936496e-04 0.0000000000000000e+00  -3.6430944322996868e-04 -3.9621554148522912e-08 0.0000000000000000e+00  1.5089767348049098e-04 -3.8568460951516320e-08 0.0000000000000000e+00  3.6429937651779058e-04 -3.9648589907999875e-08 0.0000000000000000e+00  3.6429626902460734e-04 -3.9709960290927028e-08 0.0000000000000000e+00  3.6429937651779058e-04 -3.9648589907999875e-08 0.0000000000000000e+00  3.6429626902460734e-04 -3.9709960290927028e-08 0.0000000000000000e+00  1.3818594548958832e-04 1.8008029737695544e-04 0.0000000000000000e+00  -2.6886824943541103e-04 5.6684952148486413e-05 0.0000000000000000e+00  2.5650686492619825e-04 -1.0589760176283682e-04 0.0000000000000000e+00  1.4211211015245152e-04 -1.4216344557717124e-04 0.0000000000000000e+00  1.8692800414374467e-04 -1.6974590068615617e-04 0.0000000000000000e+00  4.3269389212412871e-05 -1.0579014565604682e-04 0.0000000000000000e+00  2.0823506068744585e-04 5.9656944713118538e-05 0.0000000000000000e+00  -8.7877316599765893e-05 2.9144622189349869e-04 0.0000000000000000e+00  -3.6541985059176984e-04 4.9176413404080147e-06 0.0000000000000000e+00  -1.3756986858463326e-04 3.5368136180427264e-05 0.0000000000000000e+00  4.6766096302122688e-05 3.4750066726898875e-04 0.0000000000000000e+00  7.5809753532863716e-05 3.0569063008592393e-04 0.0000000000000000e+00  -6.1238755824030776e-05 2.6321258947981411e-04 0.0000000000000000e+00  -1.6305408392037159e-04 -1.0441042043957368e-04 0.0000000000000000e+00  -8.4715716912117607e-05 1.7326158941401635e-05 0.0000000000000000e+00  -1.4827881176381557e-04 -8.3356191751541775e-05 0.0000000000000000e+00  3.1067487545840785e-04 -4.5878727931947593e-05 0.0000000000000000e+00  9.9113908315094835e-05 -2.5397847451191097e-04 0.0000000000000000e+00  9.7948549290207711e-05 2.1664050924640775e-04 0.0000000000000000e+00  7.6167933003956555e-05 2.7412920638857102e-04 0.0000000000000000e+00  -2.3753647110384121e-04 1.1767509249854401e-04 0.0000000000000000e+00  -2.7440454200600014e-05 3.5264156102993982e-05 0.0000000000000000e+00  4.4610592483062870e-06 3.6856006996854358e-04 0.0000000000000000e+00  1.2989563756951278e-05 -4.4032406403385704e-05 0.0000000000000000e+00  -1.1533991823738192e-04 2.5882616715582529e-04 0.0000000000000000e+00  -2.4225677017361661e-04 -1.5018904357618987e-04 0.0000000000000000e+00  6.1624259014255781e-05 -3.2864541339674026e-04 0.0000000000000000e+00  -6.5801200699052161e-05 -3.2655073408026895e-04 0.0000000000000000e+00  1.7504244881221101e-04 2.1257105700050189e-04 0.0000000000000000e+00  -6.6765497859776963e-06 1.8166869302089876e-04 0.0000000000000000e+00  7.3072558760725861e-05 -1.1126169433228121e-04 0.0000000000000000e+00  2.5224967013643936e-04 -1.3321556742856746e-04 0.0000000000000000e+00  9.7985807026789503e-05 -2.5161479181744743e-04 0.0000000000000000e+00  -1.9150459978245415e-04 -2.0162364601558090e-04 0.0000000000000000e+00  -1.5387639223557998e-04 1.2375883725825130e-04 0.0000000000000000e+00  -9.8934197995582886e-05 2.4878788838058691e-04 0.0000000000000000e+00  1.0876561240143874e-04 1.9190893915315048e-04 0.0000000000000000e+00  -3.5745003940641209e-04 3.6813941437476277e-05 0.0000000000000000e+00  2.1727308570230547e-04 4.7068747327296608e-05 0.0000000000000000e+00  1.7068741269533005e-04 2.0767280931863460e-04 0.0000000000000000e+00  -6.2070075343797126e-05 3.1413670115213263e-04 0.0000000000000000e+00  -3.4296403341067512e-04 2.6584298735312324e-05 0.0000000000000000e+00  3.6960602258386872e-04 -1.5158414163590216e-05 0.0000000000000000e+00  6.8996175918794819e-05 2.5679131348446341e-04 0.0000000000000000e+00  2.5660337916454671e-04 7.4020826308917719e-05 0.0000000000000000e+00  1.2575183343952980e-04 5.4117992810399529e-05 0.0000000000000000e+00  6.8827191839991968e-05 1.7000179461569963e-04 0.0000000000000000e+00  -2.9103118503546977e-04 9.9699683430588267e-05 0.0000000000000000e+00  -2.3041025878590995e-04 2.5872885243569907e-05 0.0000000000000000e+00  6.4864812570631449e-05 -2.4059555413898838e-04 0.0000000000000000e+00  -2.2432073421344293e-06 3.7218186959638689e-04 0.0000000000000000e+00  -3.7291691625602097e-04 -8.5173209909466185e-06 0.0000000000000000e+00  1.8297681142595944e-05 -3.7059224881242167e-04 0.0000000000000000e+00  -2.1190442961826157e-05 -3.7150537849374768e-04 0.0000000000000000e+00  8.1391309725124183e-06 -7.6223561735706377e-05 0.0000000000000000e+00  1.4807091900006681e-04 2.3688806674426966e-04 0.0000000000000000e+00  -2.4493683236183578e-04 9.9399967768683308e-05 0.0000000000000000e+00  -3.1669972515143238e-04 5.6659108343180213e-05 0.0000000000000000e+00  -9.0189168336298161e-05 2.8785095182155910e-04 0.0000000000000000e+00  -1.5990520876576054e-05 2.0252315647342517e-04 0.0000000000000000e+00  -1.0625889391676555e-05 3.0795036482491575e-04 0.0000000000000000e+00  -2.9341788534522999e-04 -7.9172212588408838e-05 0.0000000000000000e+00  -7.3216513568545924e-05 -2.9345870163500907e-04 0.0000000000000000e+00  1.1767005876195529e-04 -4.8620155438294809e-05 0.0000000000000000e+00  8.9698881909604881e-05 -2.2280731986837771e-04 0.0000000000000000e+00  2.7351004311637443e-04 -8.8192766867444694e-05 0.0000000000000000e+00  1.2727143292353115e-05 -3.3475723857060043e-04 0.0000000000000000e+00  3.5330020123344481e-04 4.0854515580826336e-05 0.0000000000000000e+00  2.9565006875560945e-04 -9.2633056918203446e-05 0.0000000000000000e+00  -3.1019870711778812e-04 -5.1115213187046576e-05 0.0000000000000000e+00  1.4543763678031082e-04 2.4871537559726558e-04 0.0000000000000000e+00  8.6157700401758843e-05 2.7839043489503800e-04 0.0000000000000000e+00  9.6555702535450614e-06 3.5056954498882573e-04 0.0000000000000000e+00  9.5487350130661774e-07 3.8275499927979104e-04 0.0000000000000000e+00  -1.9143641525669053e-05 3.7449357082019606e-04 0.0000000000000000e+00  -1.1551646396200824e-04 2.3753414661737714e-04 0.0000000000000000e+00  -2.2218945806872005e-04 1.7016311084975245e-04 0.0000000000000000e+00  -3.3477983200321605e-04 1.4469963674581660e-05 0.0000000000000000e+00  1.8189858533830183e-04 2.8519469031078522e-05 0.0