<?xml version="1.0"?>
<VTKFile type="UnstructuredGrid"  version="0.1"  >
<UnstructuredGrid>
<Piece  NumberOfPoints="5315" NumberOfCells="10372">
<Points>
<DataArray  type="Float64"  NumberOfComponents="3"  format="ascii">-1 -1 0  1 -1 0  1 1 0  -1 1 0  0 -1 0  1 0 0  0 1 0  -1 0 0  0 0 0  -1 -0.5 0  -0.5 -1 0  -0.5 1 0  -1 0.5 0  1 -0.5 0  0.5 -1 0  1 0.5 0  0.5 1 0  0.4166666666666666 -0.4166666666666667 0  -0.4166666666666667 0.4166666666666667 0  -0.25 -0.5 0  0.5 0.25 0  -0.4861111111111112 -0.06944444444444445 0  0.0732758620689655 0.507183908045977 0  -0.625 -0.625 0  0.625 0.625 0  0.7380952380952381 -0.25 0  -0.7099116161616161 0.2105429292929293 0  -0.25 0.7380952380952381 0  0.105392156862745 -0.6348039215686275 0  0.6770833333333334 -0.6770833333333333 0  -0.6770833333333334 0.6770833333333334 0  0.3472222222222222 -0.06944444444444446 0  -0.7264957264957265 -0.3044871794871795 0  0.3141940982507127 0.7297313660835709 0  0.02049587951122483 -0.3227479397556124 0  -0.2690972222222223 0.1475694444444444 0  0.3859500089908372 -0.7274430156831472 0  -0.2228477945123298 -0.1761765495248019 0  0.2182539682539683 0.1884920634920635 0  0.75 0.375 0  -0.145442219440968 -0.7602211097204841 0  0.7088913690476191 0.0427827380952381 0  -0.75 -1 0  -1 -0.75 0  1 0.75 0  0.75 1 0  -0.7439982703698937 -0.04614153195464455 0  -0.4609235096577606 -0.3356498099556895 0  0.4063134471431929 0.4895621842856023 0  0.25 -1 0  -0.25 -1 0  -0.75 1 0  0.75 -1 0  -1 -0.25 0  -1 0.25 0  1 -0.25 0  -0.25 1 0  1 -0.75 0  -1 0.75 0  0.25 1 0  1 0.25 0  -0.4041423272138783 -0.7597141090712928 0  0.06500839607911253 0.7578103030529481 0  -0.1572801182352047 0.3838997021864289 0  -0.6528005242053915 0.4409494757946086 0  -0.4930160984848485 0.1544744318181818 0  -0.4732142857142858 0.7752976190476191 0  0.6398809523809523 -0.4538690476190476 0  0.5166054117396399 -0.2161233620965164 0  -0.002273787244753427 0.2232363985975174 0  0.1500564496765022 -0.1524955293952667 0  0.2016720420046758 -0.4410343282803009 0  -0.08495178036419618 0.6274139771124571 0  -0.8367311471133162 0.3642591720794645 0  -0.8333333333333334 -0.625 0  -0.594323836800685 -0.8231079456002283 0  -0.4466957714776065 -0.5349126855671806 0  0.8125 0.5625 0  0.78125 0.78125 0  0.5091392650016769 0.7947130883338923 0  0.125 -0.8382681931833136 0  -0.8184523809523809 -0.8184523809523809 0  -0.07781530426104531 -0.5819319697006881 0  0.5085055196703295 0.04967610411902112 0  0.2918471072074933 -0.276017202318847 0  0.5120763537765269 -0.5898771553229597 0  0.625 -0.8585349462365591 0  0.8158532234335381 -0.8158532234335381 0  -0.5198088446315396 0.5739411553684605 0  -0.8585349462365591 0.625 0  -0.8150493805516597 0.8156205699829586 0  0.8585349462365591 -0.625 0  -0.2688268348649726 0.5439331383603209 0  0.8242100426758139 -0.4436043596336612 0  0.5833756314287952 0.4479378157143976 0  0.8690476190476191 -0.125 0  -0.125 0.8690476190476191 0  -0.8692745600729823 0.125 0  0.8696725120759167 0.125 0  -0.625 0.8711516477451908 0  0.2339522463269718 0.3879558377955778 0  0.2453709502295031 0.5655822922838026 0  0.1730610651637797 0.02021709580868947 0  0.3245402594056757 -0.5644672020485209 0  -0.7291666666666666 -0.4816595441595442 0  -1 -0.375 0  -0.5811140848639904 -0.2127276307675001 0  0.673332592838314 0.2158348143233718 0  0.375 1 0  -0.5714768890989919 0.2985103444040069 0  -1 -0.125 0  -0.8453692574786325 -0.1875 0  -0.3144549134065865 -0.02408675326008025 0  -0.2898414972096258 -0.3336092734780093 0  -0.1075052092206287 -0.4224330421314983 0  -0.05043970703604117 -0.1652278959397459 0  0.6459672950297897 -0.1113415301525317 0  0.4645210271029513 0.6398480556579343 0  0.3512863754411909 0.0937979496253573 0  -0.6063160985568274 0.03891469652249891 0  -0.3428819444444445 0.8690476190476191 0  0.625 1 0  -0.1602164796159982 0.02697860906625157 0  0.04648110064133829 -0.4808416424239687 0  1 0.875 0  -0.3836102479201657 0.6484936449177356 0  -0.3776011723096096 0.263078478984336 0  -0.6024978259969829 -0.3949628096211138 0  0.125 1 0  0.2010781308272777 0.8456221018461906 0  0.2822509696388829 -0.845902544691141 0  -0.3285533674953515 -0.6289773550938936 0  0.3461306793221754 0.278777492464833 0  0.4737475672408696 -0.8508448959534423 0  0.2384632828836344 -0.7029523187242811 0  -0.004777287059791593 0.3759269695907358 0  -0.8499735021850066 -0.3912320205328522 0  0.1222536293721587 0.2963971539625205 0  -0.3769456520999688 -0.203572526805711 0  -0.2749617205755651 -0.8464290792698902 0  0.004805888512766143 -0.747174355248311 0  -0.125 -1 0  -0.06001061822252458 -0.8724007765244854 0  0.875 0.4375 0  0.854421179608893 0.271342359217786 0  0.875 1 0  -0.1499861095763589 0.2358309656934888 0  0.3381943639137225 0.8663061796405532 0  -0.7853090110442228 0.4998412775277108 0  0.7398165998560814 -0.5535192694951373 0  0.1580042122341573 -0.3100246140259917 0  -0.7291666666666667 -0.7142857142857142 0  -0.375 -1 0  0.6483368386154684 0.8514905990110488 0  -0.1295370103291928 -0.2826118305021242 0  0.07458201853700455 0.1123894386563915 0  0.6146465857036327 -0.3161203659316075 0  0.5551898493894731 -0.740296118159085 0  0.375 -1 0  0.482702798370208 -0.084133350091034 0  0.87890625 0.68359375 0  -0.05917195534525846 0.4971092425697621 0  0.1260710309213975 0.6343750312956699 0  0.8690476190476191 -0.3077066815262848 0  -0.2912010232560567 0.3668168386732139 0  -0.875 1 0  -1 0.875 0  1 -0.875 0  0.875 -1 0  -0.8689564281364567 -0.006189266075306407 0  -0.7449425635110547 0.08458938160051771 0  -0.7150266761936593 -0.1739444581417552 0  -0.5260034831318311 -0.711099823962112 0  -0.4724626808827322 -0.871722230709409 0  0.4734436795977052 0.377714794132168 0  -0.875 -1 0  -1 -0.875 0  0.6927189078571988 0.5156567235715964 0  -0.3742497615796874 -0.4296005251260107 0  -0.1969436423297711 -0.6387157229772615 0  -0.6179496409766825 -0.08933356056510935 0  -0.424405057115988 0.04452428810878029 0  -0.08479048335844169 0.1279607007132633 0  0.003830300099055113 0.8712085230656206 0  0.8748778838820267 -1.379218479898026e-05 0  -0.375 1 0  -0.625 1 0  1 0.125 0  -0.125 1 0  1 -0.375 0  1 -0.125 0  1 -0.625 0  0.625 -1 0  0.125 -1 0  -0.625 -1 0  -1 -0.625 0  -1 0.125 0  -1 0.375 0  -1 0.625 0  1 0.375 0  1 0.625 0  0.6325660748712082 0.3335187599557389 0  -0.06420945895056573 0.7549874027425891 0  -0.8769015540914771 0.2478802253893416 0  0.871875 0.871875 0  -0.6868091492840067 0.3270978624973681 0  -0.5363597469565949 0.412994850055505 0  -0.6803734992638302 0.5574295000651103 0  -0.7076253581162534 -0.8803439094224437 0  -0.8778089002295137 -0.5106896447504627 0  -0.3860184984222981 0.530566778071246 0  0.6109900617121508 0.1128453077697081 0  0.3896945134930274 -0.1915382873255086 0  0.7605656944697778 -0.06822134873122943 0  0.3576151269893478 0.5948388411612135 0  -0.5689902680792265 -0.5143596830118065 0  0.6262446286847614 -0.5735657901943212 0  0.2030558252325225 -0.5625263842513452 0  0.6123273142928579 0.7407533260723429 0  0.4016460890123554 -0.3042863223111857 0  -0.59039693199147 0.7578418819188018 0  0.7276932493917544 -0.3705808024528924 0  0.5222536818742854 -0.4713886230400014 0  -0.5101986527137737 0.8848365765607674 0  0.510560172809238 0.5356013299918891 0  -0.3603569195756083 0.75823710606415 0  0.1967279277813232 0.728226870058472 0  -0.6086880986371127 0.1545624071548516 0  -0.38105366729386 0.1511189987807864 0  -0.2944659463671584 -0.7359061804869591 0  0.5060729154966499 -0.3475227845833823 0  -0.09281616240412746 -0.06197858250969457 0  0.7649739583333334 0.6673177083333334 0  0.7628906249999999 0.890234375 0  -0.2666864184909611 0.2585504071132311 0  0.3635064892129658 0.3878003602709461 0  -0.2339409722222222 0.8901937905844155 0  -0.1718792125974916 -0.8957733325456778 0  0.1001768566329531 0.4023510017391879 0  0.3120260172693757 -0.4540546875576884 0  0.7804062804433681 0.1896628610854537 0  0.4087715451998049 0.187961780041608 0  -0.1584963477271457 0.5451611892421655 0  -0.8926817849258324 0.463022006336401 0  0.2338091473445219 -0.07576267331277289 0  0.08171112182813692 -0.2349087687359925 0  0.04635385178956847 -0.1044635073718474 0  -0.4377391632114205 -0.6448874471423088 0  -0.1907678351227189 0.6480215912813945 0  0.300605946475244 0.4741444604171038 0  -0.2145033720757486 -0.06751709909419711 0  0.6069191921170397 -0.005492331448357812 0  0.0214718770761248 0.6032397936031719 0  0.5476675683364878 0.8992752415326501 0  0.4387475014316537 0.9093708953002239 0  -0.4932997685306436 -0.4381009159993523 0  0.2515197695339056 -0.1791673369138964 0  -0.7291666666666667 -0.6088789682539681 0  -0.9166666666666667 -0.6875 0  0.620579540363709 -0.2122431523583302 0  -0.484950136419973 0.6719440339397442 0  0.2857044415400258 0.0137589173127316 0  -0.8945708364098356 -0.288306105327986 0  0.4043102720140535 0.7842914560451557 0  0.04123256238752064 -0.9026968245801402 0  0.2003676884403109 -0.9091888601740487 0  0.1068775558538842 -0.7373377130403223 0  -0.4804566783514427 -0.1763307203045643 0  0.108286342087769 -0.3993789328997278 0  -0.191883080105361 -0.3640821726430649 0  -0.07025064492006244 0.2984876656890053 0  -0.7039324641409584 0.788312126296613 0  -0.7311286585775438 0.8932502354831682 0  0.5171409396884947 0.1503852691889257 0  0.4229392823658633 -0.003216522184234835 0  -0.5621736087218259 -0.919558629836806 0  -0.626474064879544 -0.7266572613636506 0  0.2446828746617422 0.2867616783302419 0  0.1759429608742923 0.4776611759306416 0  -0.3468240303741654 -0.5260416435617549 0  -0.7465808808425306 0.4069574477998361 0  -0.7819962170660292 0.2802441065650652 0  -0.3742623214119594 -0.8547800509641984 0  0.1014498009713561 0.8506721983266377 0  0.4285217620918213 -0.5230190595570253 0  0.4091738370487775 -0.6256346204225141 0  0.78125 0.46875 0  0.90625 0.53125 0  -0.4791801348852565 0.2553992655702126 0  0.7843318610782772 -0.7086046956885941 0  0.8909728264971901 -0.7355183796514634 0  0.7041908166528879 -0.7830649143180282 0  0.731182135
[...]
<PointData  Vectors="f_21"> 
<DataArray  type="Float64"  Name="f_21"  NumberOfComponents="3" format="ascii">-1.6632755890529964e-08 -5.9514826322613381e-08 0.0000000000000000e+00  -1.6632755890529964e-08 -5.9514826322613381e-08 0.0000000000000000e+00  -1.6632755890529964e-08 -5.9514826322613381e-08 0.0000000000000000e+00  -1.6632755890529964e-08 -5.9514826322613381e-08 0.0000000000000000e+00  -4.2435525093432460e-08 -8.3238789364743939e-08 0.0000000000000000e+00  9.9988851921832860e-09 -3.9631473530349491e-08 0.0000000000000000e+00  -4.2435525093432460e-08 -8.3238789364743939e-08 0.0000000000000000e+00  9.9988851921832860e-09 -3.9631473530349491e-08 0.0000000000000000e+00  -4.2555269962432355e-08 -2.1404369515409039e-08 0.0000000000000000e+00  -5.0053387027489986e-03 -3.9755452952949844e-08 0.0000000000000000e+00  -2.1585008318156805e-08 5.0053070824957616e-03 0.0000000000000000e+00  -2.1585008318156805e-08 5.0053070824957616e-03 0.0000000000000000e+00  5.0053563917158237e-03 -3.2654561857544235e-08 0.0000000000000000e+00  -5.0053387027489986e-03 -3.9755452952949844e-08 0.0000000000000000e+00  -2.5159272585318621e-08 -5.0053800966371725e-03 0.0000000000000000e+00  5.0053563917158237e-03 -3.2654561857544235e-08 0.0000000000000000e+00  -2.5159272585318621e-08 -5.0053800966371725e-03 0.0000000000000000e+00  1.2513460504635131e-03 1.2512875824256474e-03 0.0000000000000000e+00  -1.2513906544558246e-03 -1.2513552789765667e-03 0.0000000000000000e+00  3.5393175743774576e-03 -2.1087264725099636e-08 0.0000000000000000e+00  -2.3156184738110005e-09 3.5392769987369400e-03 0.0000000000000000e+00  4.7282454369349185e-05 -4.8820914714134914e-03 0.0000000000000000e+00  -4.8720508748610440e-03 -2.5849420667329525e-05 0.0000000000000000e+00  -1.7696624691069202e-03 1.7696068384944626e-03 0.0000000000000000e+00  1.7696334835813616e-03 -1.7696946703582939e-03 0.0000000000000000e+00  -2.4073409950779150e-03 2.5944510867801276e-03 0.0000000000000000e+00  1.8837741895532303e-03 -3.1216027736027277e-03 0.0000000000000000e+00  -2.5945342698928645e-03 2.4072749951785689e-03 0.0000000000000000e+00  4.3153098823577908e-03 -6.6872086007988148e-04 0.0000000000000000e+00  -2.2445908313141450e-03 -2.2446233807573144e-03 0.0000000000000000e+00  2.2445581168559769e-03 2.2445479723563408e-03 0.0000000000000000e+00  5.0023899142923338e-04 4.3345039581031411e-03 0.0000000000000000e+00  -2.6711268903372360e-03 -2.1847451059667754e-03 0.0000000000000000e+00  -2.0708265751078819e-03 -2.7593956125932062e-03 0.0000000000000000e+00  4.2403303362649348e-03 1.7016375266683728e-04 0.0000000000000000e+00  -1.4849584214457544e-03 -3.3498690398592601e-03 0.0000000000000000e+00  1.3258983983369045e-03 -3.0715765782241499e-03 0.0000000000000000e+00  2.0121775847907501e-03 -2.7434806969262918e-03 0.0000000000000000e+00  -2.1623878332608024e-03 2.6296183060265910e-03 0.0000000000000000e+00  3.2699038395402856e-03 1.3543850252811594e-03 0.0000000000000000e+00  3.0725915662774173e-03 1.6107823479246418e-03 0.0000000000000000e+00  4.0924838471411139e-04 3.9298410204192018e-03 0.0000000000000000e+00  -3.0339731626296528e-08 3.5392936719330472e-03 0.0000000000000000e+00  -3.5393183465305999e-03 -2.6274399024380178e-08 0.0000000000000000e+00  3.5392903797447695e-03 -3.6047532395778953e-08 0.0000000000000000e+00  -3.7444077045272074e-08 -3.5393397471502291e-03 0.0000000000000000e+00  -5.0149327025194787e-04 -3.5676441453122714e-03 0.0000000000000000e+00  5.3301731945689301e-04 -2.4525041183079879e-03 0.0000000000000000e+00  -1.4512361705807785e-03 1.5695299774743681e-04 0.0000000000000000e+00  -2.1456630321811338e-08 -3.5393698432130967e-03 0.0000000000000000e+00  -1.7055154600829684e-08 3.5392719896921864e-03 0.0000000000000000e+00  -3.0339731626296528e-08 3.5392936719330472e-03 0.0000000000000000e+00  -3.7444077045272074e-08 -3.5393397471502291e-03 0.0000000000000000e+00  -3.5392903930862164e-03 -4.3627289620711845e-08 0.0000000000000000e+00  3.5393145726569436e-03 -2.1890873731188000e-08 0.0000000000000000e+00  -3.5392903930862164e-03 -4.3627289620711845e-08 0.0000000000000000e+00  -1.7055154600829684e-08 3.5392719896921864e-03 0.0000000000000000e+00  -3.5393183465305999e-03 -2.6274399024380178e-08 0.0000000000000000e+00  3.5392903797447695e-03 -3.6047532395778953e-08 0.0000000000000000e+00  -2.1456630321811338e-08 -3.5393698432130967e-03 0.0000000000000000e+00  3.5393145726569436e-03 -2.1890873731188000e-08 0.0000000000000000e+00  1.0172784245484673e-03 3.4815441504686441e-03 0.0000000000000000e+00  -3.3797097645253413e-03 -7.3527737653601645e-04 0.0000000000000000e+00  -4.1167797709174515e-03 -8.4679131930233496e-04 0.0000000000000000e+00  2.2718735474122802e-03 -8.1891475600238072e-04 0.0000000000000000e+00  -5.1231416498887616e-05 -4.4263447204097037e-03 0.0000000000000000e+00  -2.7293569970006956e-04 3.7956015473484270e-03 0.0000000000000000e+00  -2.1071259895625140e-03 6.5411211794870526e-04 0.0000000000000000e+00  -1.6392585172001259e-04 3.8898942882278882e-03 0.0000000000000000e+00  -3.2295335854812877e-03 -2.7369516706869909e-05 0.0000000000000000e+00  2.0556046136472384e-03 2.0171955182440109e-03 0.0000000000000000e+00  3.9648899503831932e-03 5.4574845854431806e-04 0.0000000000000000e+00  -4.4464962662590065e-03 5.1434497681948318e-04 0.0000000000000000e+00  3.9706644410943898e-03 -1.0160058481647792e-03 0.0000000000000000e+00  -4.0047915602888966e-03 9.5768155574920202e-04 0.0000000000000000e+00  -7.7109616257953054e-04 4.0667751967564600e-03 0.0000000000000000e+00  8.2926122054145931e-04 5.4020640829955454e-04 0.0000000000000000e+00  4.0818034079746325e-03 -5.4251186378815404e-04 0.0000000000000000e+00  2.4545639941863993e-03 -2.4546214693530522e-03 0.0000000000000000e+00  8.6360885029848053e-05 -3.9983885071558124e-03 0.0000000000000000e+00  2.2497905176703139e-03 -1.6735423375335277e-03 0.0000000000000000e+00  -2.2747390786772262e-03 2.2747063913075389e-03 0.0000000000000000e+00  4.6965188497577288e-03 3.0833411032469795e-04 0.0000000000000000e+00  2.0812305025827719e-05 4.9427062814268521e-03 0.0000000000000000e+00  2.3216151040327039e-03 2.5703471414301798e-03 0.0000000000000000e+00  -1.8236395513108477e-04 -1.3936327775340551e-03 0.0000000000000000e+00  -8.2354827997526152e-04 -4.1751505113714130e-03 0.0000000000000000e+00  -2.2914920955533465e-03 -2.2915042231233104e-03 0.0000000000000000e+00  3.0293944453738000e-04 1.1499927765179828e-03 0.0000000000000000e+00  4.1751014845378947e-03 8.2349863126190341e-04 0.0000000000000000e+00  2.2902326366272766e-03 2.2991863762653430e-03 0.0000000000000000e+00  -4.1751119403697235e-03 -8.2355890351662301e-04 0.0000000000000000e+00  -3.2923343691425261e-03 5.1481972662526865e-04 0.0000000000000000e+00  -4.1945509717785960e-03 4.6275075891866657e-04 0.0000000000000000e+00  1.2788041885321111e-03 7.8714767980532345e-04 0.0000000000000000e+00  -1.7556107096980730e-03 1.8491818243320849e-03 0.0000000000000000e+00  -1.8492277542560265e-03 1.7556073740066709e-03 0.0000000000000000e+00  1.7562058602668335e-03 -1.8462210841424876e-03 0.0000000000000000e+00  1.7571468356312122e-03 1.8408680492236690e-03 0.0000000000000000e+00  7.5434597758739918e-04 4.2505829076194147e-03 0.0000000000000000e+00  -3.4854998239152602e-03 1.1571577121788281e-03 0.0000000000000000e+00  -3.5144847132149780e-03 -7.1354111275481562e-04 0.0000000000000000e+00  -2.7191137305615179e-04 2.5839433088010303e-03 0.0000000000000000e+00  2.5678668785717837e-03 -8.5775201006702397e-04 0.0000000000000000e+00  -3.2947773598217159e-03 -2.1674564979188803e-04 0.0000000000000000e+00  -4.6243129432919456e-03 -4.1788180352163432e-08 0.0000000000000000e+00  -7.8183921075379516e-04 -3.8017418558391413e-03 0.0000000000000000e+00  1.6264706756733583e-03 3.3342819596260194e-03 0.0000000000000000e+00  -2.2423915231509287e-08 -4.6244029833617875e-03 0.0000000000000000e+00  8.9861456652361182e-04 -2.8866759993684374e-03 0.0000000000000000e+00  -1.9154256124540641e-03 -4.3582194537152450e-08 0.0000000000000000e+00  -2.4590650919714637e-03 -1.9432039179371719e-03 0.0000000000000000e+00  2.0829511878765584e-04 -4.1668747104122760e-03 0.0000000000000000e+00  2.6598369810184397e-03 -1.9738030350577931e-03 0.0000000000000000e+00  4.5830598773130274e-03 -4.0024858908643639e-04 0.0000000000000000e+00  2.4519113210507456e-03 -6.8590147074080120e-04 0.0000000000000000e+00  -7.5932668925252544e-04 4.2163721826961285e-03 0.0000000000000000e+00  -5.0386767085886018e-04 -2.1158711921920041e-03 0.0000000000000000e+00  -6.5471627387941628e-04 4.2762578493700729e-03 0.0000000000000000e+00  2.0010910896681741e-04 -4.6934872548569642e-03 0.0000000000000000e+00  -9.4837154741481871e-04 4.0400464286211449e-03 0.0000000000000000e+00  3.9164865348800943e-09 -4.6244121573125142e-03 0.0000000000000000e+00  -3.7118274811991477e-04 -2.4057466708452512e-03 0.0000000000000000e+00  4.9431156590225636e-03 4.3750689661895381e-05 0.0000000000000000e+00  1.9154104402026220e-03 -2.0296403215523462e-08 0.0000000000000000e+00  -1.5984660098583082e-03 2.1023871764884339e-03 0.0000000000000000e+00  -1.3810726219619222e-03 -3.1433772507372449e-03 0.0000000000000000e+00  -1.4985795660837041e-03 -1.5385232484580434e-03 0.0000000000000000e+00  -2.6245851109131084e-08 -1.9155108459714923e-03 0.0000000000000000e+00  -1.8831826062690688e-03 -2.6149730924464724e-03 0.0000000000000000e+00  1.4721963736712945e-03 -3.4334471794572694e-03 0.0000000000000000e+00  2.3595707984134864e-03 1.6936889751620970e-03 0.0000000000000000e+00  -1.7868294206660309e-03 2.8380023881673516e-03 0.0000000000000000e+00  1.8622298341095387e-04 -4.4506642454352147e-03 0.0000000000000000e+00  2.9451200325778136e-03 -2.0291457927798500e-03 0.0000000000000000e+00  -4.6293584094050108e-03 -2.8580680858762637e-05 0.0000000000000000e+00  -4.2017590765709399e-03 -7.6161941768677379e-04 0.0000000000000000e+00  -3.7232772640208097e-03 1.1194366007110093e-03 0.0000000000000000e+00  1.1263133332979039e-03 -3.7197856383367894e-03 0.0000000000000000e+00  1.5083814668565676e-03 3.3712635292333353e-03 0.0000000000000000e+00  3.5701606054293834e-03 -5.3017303925540419e-05 0.0000000000000000e+00  -3.5715118403516938e-08 1.9153966704278374e-03 0.0000000000000000e+00  1.9185293066654925e-03 8.6365833314604634e-04 0.0000000000000000e+00  4.5354478605669967e-03 3.7365826311945739e-04 0.0000000000000000e+00  3.3811906314232588e-03 1.4546008064126436e-03 0.0000000000000000e+00  -4.0049526254663082e-08 -1.9154530030584596e-03 0.0000000000000000e+00  -3.0101645341572827e-03 -1.6766346557886835e-03 0.0000000000000000e+00  -9.9343923797704198e-04 -3.9924712469015539e-03 0.0000000000000000e+00  3.9093546015078525e-03 -1.5887838607068884e-06 0.0000000000000000e+00  -3.3760144044430291e-03 -6.1096518279611428e-04 0.0000000000000000e+00  3.6403917360058840e-03 1.3396849835241153e-03 0.0000000000000000e+00  -2.5802347334389886e-03 2.3463143216339122e-03 0.0000000000000000e+00  -1.4017412836930122e-08 4.6243014816577336e-03 0.0000000000000000e+00  1.0115994170173037e-03 -3.9937470930343647e-03 0.0000000000000000e+00  3.5656411053595484e-03 -1.2503389047204818e-03 0.0000000000000000e+00  -1.6834985982312955e-03 1.0903336618864599e-03 0.0000000000000000e+00  -1.4778238577878443e-03 2.5578762228253087e-03 0.0000000000000000e+00  -6.2891637555067235e-04 -3.3783887660678320e-03 0.0000000000000000e+00  -2.2423915231509287e-08 -4.6244029833617875e-03 0.0000000000000000e+00  7.1037631301736260e-05 4.8242985842667273e-03 0.0000000000000000e+00  3.8956525330978123e-03 -1.0135512443419782e-03 0.0000000000000000e+00  -4.9189291468003122e-03 -8.4589612777515171e-06 0.0000000000000000e+00  -4.2124636234226725e-03 -7.9122938976005069e-04 0.0000000000000000e+00  -3.7757155811287179e-03 1.1369240312646303e-03 0.0000000000000000e+00  -2.7895460762996692e-03 -1.6116523199808824e-03 0.0000000000000000e+00  2.1447954442188087e-08 1.9154180898549298e-03 0.0000000000000000e+00  1.9154104402026220e-03 -2.0296403215523462e-08 0.0000000000000000e+00  -1.9155090669127300e-03 -6.1058176091938749e-08 0.0000000000000000e+00  -4.0049526254663082e-08 -1.9154530030584596e-03 0.0000000000000000e+00  -8.9210929956038779e-05 -2.0026126036342515e-03 0.0000000000000000e+00  9.1468044709869527e-04 -3.4689006025034118e-03 0.0000000000000000e+00  -1.6264757199864763e-03 -3.3372629729622079e-03 0.0000000000000000e+00  -3.2186758612294552e-04 3.0711124171107708e-03 0.0000000000000000e+00  1.6958485184392146e-04 4.5871128471859273e-03 0.0000000000000000e+00  -3.8670491197145997e-04 1.8693890446552799e-03 0.0000000000000000e+00  2.1447954442188087e-08 1.9154180898549298e-03 0.0000000000000000e+00  -1.9155090669127300e-03 -6.1058176091938749e-08 0.0000000000000000e+00  2.8451898528922492e-03 -2.0241153512391734e-04 0.0000000000000000e+00  1.8794380066731611e-03 -1.0134504584965321e-03 0.0000000000000000e+00  3.6963687857516784e-03 1.2253821195729675e-03 0.0000000000000000e+00  -5.0201618882615001e-04 -4.4831071535955313e-03 0.0000000000000000e+00  -1.6417262878204965e-04 -4.8173621786112269e-03 0.0000000000000000e+00  -1.8893355387163103e-03 -1.2126027949176698e-03 0.0000000000000000e+00  -1.9702972689831992e-03 -5.5385689405395868e-05 0.0000000000000000e+00  -1.7436091244458500e-07 1.9171842325306171e-03 0.0000000000000000e+00  -1.4017412836930122e-08 4.6243014816577336e-03 0.0000000000000000e+00  -3.0232660068607301e-08 4.6243109230789479e-03 0.0000000000000000e+00  1.9154595600296754e-03 -7.1363680201830713e-09 0.0000000000000000e+00  -3.5715118403516938e-08 1.9153966704278374e-03 0.0000000000000000e+00  -4.6243129432919456e-03 -4.1788180352163432e-08 0.0000000000000000e+00  -1.9154256124540641e-03 -4.3582194537152450e-08 0.0000000000000000e+00  -4.6243394288051718e-03 -2.9763847837629123e-08 0.0000000000000000e+00  3.9164865348800943e-09 -4.6244121573125142e-03 0.0000000000000000e+00  -2.6245851109131084e-08 -1.9155108459714923e-03 0.0000000000000000e+00  -3.0232660068607301e-08 4.6243109230789479e-03 0.0000000000000000e+00  -4.6243394288051718e-03 -2.9763847837629123e-08 0.0000000000000000e+00  1.9154595600296754e-03 -7.1363680201830713e-09 0.0000000000000000e+00  4.6243267034041533e-03 -2.4207549294114343e-08 0.0000000000000000e+00  4.6243319868666593e-03 -2.3997807200677380e-08 0.0000000000000000e+00  4.6243267034041533e-03 -2.4207549294114343e-08 0.0000000000000000e+00  4.6243319868666593e-03 -2.3997807200677380e-08 0.0000000000000000e+00  1.7541338137138603e-03 2.2863826583314449e-03 0.0000000000000000e+00  -3.4128194139647892e-03 7.2006729712882091e-04 0.0000000000000000e+00  3.2560340271756555e-03 -1.3437439110528132e-03 0.0000000000000000e+00  1.8040129562724256e-03 -1.8040782572782020e-03 0.0000000000000000e+00  2.3728481347152306e-03 -2.1542134480885058e-03 0.0000000000000000e+00  5.4929427208118221e-04 -1.3423705098743409e-03 0.0000000000000000e+00  2.6433361043508383e-03 7.5774998822787112e-04 0.0000000000000000e+00  -1.1153912958198038e-03 3.6999826827693902e-03 0.0000000000000000e+00  -4.6384570834971713e-03 6.2886814303432796e-05 0.0000000000000000e+00  -1.7461981254394650e-03 4.4945022287124110e-04 0.0000000000000000e+00  5.9365379495234817e-04 4.4115529663951748e-03 0.0000000000000000e+00  9.6230580822402394e-04 3.8808498580046153e-03 0.0000000000000000e+00  -7.7732884347825738e-04 3.3416159194535992e-03 0.0000000000000000e+00  -2.0696645203888515e-03 -1.3247992909858370e-03 0.0000000000000000e+00  -1.0752851863374817e-03 2.2042138918293062e-04 0.0000000000000000e+00  -1.8821458108459867e-03 -1.0575771588752644e-03 0.0000000000000000e+00  3.9436537238103078e-03 -5.8181482784343860e-04 0.0000000000000000e+00  1.2582050119679291e-03 -3.2234020080085198e-03 0.0000000000000000e+00  1.2433616545420387e-03 2.7504806036155816e-03 0.0000000000000000e+00  9.6694510524607214e-04 3.4801768162017171e-03 0.0000000000000000e+00  -3.0151676466821896e-03 1.4942239512915638e-03 0.0000000000000000e+00  -3.4829334868843415e-04 4.4815601781643909e-04 0.0000000000000000e+00  5.6709623094216260e-05 4.6788439537716825e-03 0.0000000000000000e+00  1.6496094972377965e-04 -5.5841768512933517e-04 0.0000000000000000e+00  -1.4639958343665980e-03 3.2859505522256972e-03 0.0000000000000000e+00  -3.0750240131273763e-03 -1.9059056635949395e-03 0.0000000000000000e+00  7.8226574031953547e-04 -4.1711989401415879e-03 0.0000000000000000e+00  -8.3522571449949829e-04 -4.1446065663762370e-03 0.0000000000000000e+00  2.2219939819190832e-03 2.6988207144058290e-03 0.0000000000000000e+00  -8.4714104369489046e-05 2.3065488424233744e-03 0.0000000000000000e+00  9.2757627533853013e-04 -1.4117865903756413e-03 0.0000000000000000e+00  3.2020409735120563e-03 -1.6904954915085608e-03 0.0000000000000000e+00  1.2438889720996166e-03 -3.1934197379753439e-03 0.0000000000000000e+00  -2.4308518244609977e-03 -2.5588119775397256e-03 0.0000000000000000e+00  -1.9531912509343206e-03 1.5714909320366011e-03 0.0000000000000000e+00  -1.2557425387731624e-03 3.1585374577881961e-03 0.0000000000000000e+00  1.3807138919609196e-03 2.4365420636808938e-03 0.0000000000000000e+00  -4.5372680191662655e-03 4.6786036381374742e-04 0.0000000000000000e+00  2.7580377436998032e-03 5.9798494924546486e-04 0.0000000000000000e+00  2.1666671545127881e-03 2.6366195386855057e-03 0.0000000000000000e+00  -7.8784085092588752e-04 3.9880790035427506e-03 0.0000000000000000e+00  -4.3533847851327237e-03 3.3799086889912852e-04 0.0000000000000000e+00  4.6917130304203686e-03 -1.9195081521516924e-04 0.0000000000000000e+00  8.7584051768655271e-04 3.2601463255331445e-03 0.0000000000000000e+00  3.2572526071553364e-03 9.4013141673878235e-04 0.0000000000000000e+00  1.5962718729139835e-03 6.8749313106900489e-04 0.0000000000000000e+00  8.7373678043940663e-04 2.1584411252937503e-03 0.0000000000000000e+00  -3.6941642751451794e-03 1.2660866427900940e-03 0.0000000000000000e+00  -2.9246695752634579e-03 3.2895718829729372e-04 0.0000000000000000e+00  8.2338457528142702e-04 -3.0535011685172979e-03 0.0000000000000000e+00  -2.8467963399672989e-05 4.7248544407164431e-03 0.0000000000000000e+00  -4.7335879715909709e-03 -1.0757679456602687e-04 0.0000000000000000e+00  2.3235961591300510e-04 -4.7036450353586650e-03 0.0000000000000000e+00  -2.6889382437607871e-04 -4.7152207813028809e-03 0.0000000000000000e+00  1.0336286842247815e-04 -9.6706304337590768e-04 0.0000000000000000e+00  1.8795847540523040e-03 3.0075092656253978e-03 0.0000000000000000e+00  -3.1090712018970704e-03 1.2622236654963993e-03 0.0000000000000000e+00  -4.0200059394431831e-03 7.1968666267288128e-04 0.0000000000000000e+00  -1.1448096764825420e-03 3.6543795795440084e-03 0.0000000000000000e+00  -2.0289201783181069e-04 2.5712487348807599e-03 0.0000000000000000e+00  -1.3485931802106221e-04 3.9095496768236605e-03 0.0000000000000000e+00  -3.7245082105609273e-03 -1.0045168569075163e-03 0.0000000000000000e+00  -9.2929424922556249e-04 -3.7245304539353253e-03 0.0000000000000000e+00  1.4937419988826149e-03 -6.1661052140194329e-04 0.0000000000000000e+00  1.1387036190776830e-03 -2.8276885165867314e-03 0.0000000000000000e+00  3.4719195568337084e-03 -1.1189373953307141e-03 0.0000000000000000e+00  1.6158745073787545e-04 -4.2488008215238460e-03 0.0000000000000000e+00  4.4846879582398792e-03 5.1913038491624279e-04 0.0000000000000000e+00  3.7528989139548989e-03 -1.1753228009679156e-03 0.0000000000000000e+00  -3.9375022577194888e-03 -6.4829154677012327e-04 0.0000000000000000e+00  1.8462300233520442e-03 3.1575742997817023e-03 0.0000000000000000e+00  1.0937559586218614e-03 3.5342546752924224e-03 0.0000000000000000e+00  1.2260179755525712e-04 4.4505275370265796e-03 0.0000000000000000e+00  1.2149166382838783e-05 4.8590746073560410e-03 0.0000000000000000e+00  -2.4290254536748902e-04 4.7541701606600376e-03 0.0000000000000000e+00  -1.4662395465270591e-03 3.0156609736078422e-03 0.0000000000000000e+00  -2.8203408244557022e-03 2.1605322877113683e-03 0.0000000000000000e+00  -4.2495001425107868e-03 1.8422145089492330e-04 0.0000000000000000e+00  2.3090018636183259e-03 3.6252431681184539e-04 0.0000000