<?xml version="1.0"?>
<VTKFile type="UnstructuredGrid"  version="0.1"  >
<UnstructuredGrid>
<Piece  NumberOfPoints="5315" NumberOfCells="10372">
<Points>
<DataArray  type="Float64"  NumberOfComponents="3"  format="ascii">-1 -1 0  1 -1 0  1 1 0  -1 1 0  0 -1 0  1 0 0  0 1 0  -1 0 0  0 0 0  -1 -0.5 0  -0.5 -1 0  -0.5 1 0  -1 0.5 0  1 -0.5 0  0.5 -1 0  1 0.5 0  0.5 1 0  0.4166666666666666 -0.4166666666666667 0  -0.4166666666666667 0.4166666666666667 0  -0.25 -0.5 0  0.5 0.25 0  -0.4861111111111112 -0.06944444444444445 0  0.0732758620689655 0.507183908045977 0  -0.625 -0.625 0  0.625 0.625 0  0.7380952380952381 -0.25 0  -0.7099116161616161 0.2105429292929293 0  -0.25 0.7380952380952381 0  0.105392156862745 -0.6348039215686275 0  0.6770833333333334 -0.6770833333333333 0  -0.6770833333333334 0.6770833333333334 0  0.3472222222222222 -0.06944444444444446 0  -0.7264957264957265 -0.3044871794871795 0  0.3141940982507127 0.7297313660835709 0  0.02049587951122483 -0.3227479397556124 0  -0.2690972222222223 0.1475694444444444 0  0.3859500089908372 -0.7274430156831472 0  -0.2228477945123298 -0.1761765495248019 0  0.2182539682539683 0.1884920634920635 0  0.75 0.375 0  -0.145442219440968 -0.7602211097204841 0  0.7088913690476191 0.0427827380952381 0  -0.75 -1 0  -1 -0.75 0  1 0.75 0  0.75 1 0  -0.7439982703698937 -0.04614153195464455 0  -0.4609235096577606 -0.3356498099556895 0  0.4063134471431929 0.4895621842856023 0  0.25 -1 0  -0.25 -1 0  -0.75 1 0  0.75 -1 0  -1 -0.25 0  -1 0.25 0  1 -0.25 0  -0.25 1 0  1 -0.75 0  -1 0.75 0  0.25 1 0  1 0.25 0  -0.4041423272138783 -0.7597141090712928 0  0.06500839607911253 0.7578103030529481 0  -0.1572801182352047 0.3838997021864289 0  -0.6528005242053915 0.4409494757946086 0  -0.4930160984848485 0.1544744318181818 0  -0.4732142857142858 0.7752976190476191 0  0.6398809523809523 -0.4538690476190476 0  0.5166054117396399 -0.2161233620965164 0  -0.002273787244753427 0.2232363985975174 0  0.1500564496765022 -0.1524955293952667 0  0.2016720420046758 -0.4410343282803009 0  -0.08495178036419618 0.6274139771124571 0  -0.8367311471133162 0.3642591720794645 0  -0.8333333333333334 -0.625 0  -0.594323836800685 -0.8231079456002283 0  -0.4466957714776065 -0.5349126855671806 0  0.8125 0.5625 0  0.78125 0.78125 0  0.5091392650016769 0.7947130883338923 0  0.125 -0.8382681931833136 0  -0.8184523809523809 -0.8184523809523809 0  -0.07781530426104531 -0.5819319697006881 0  0.5085055196703295 0.04967610411902112 0  0.2918471072074933 -0.276017202318847 0  0.5120763537765269 -0.5898771553229597 0  0.625 -0.8585349462365591 0  0.8158532234335381 -0.8158532234335381 0  -0.5198088446315396 0.5739411553684605 0  -0.8585349462365591 0.625 0  -0.8150493805516597 0.8156205699829586 0  0.8585349462365591 -0.625 0  -0.2688268348649726 0.5439331383603209 0  0.8242100426758139 -0.4436043596336612 0  0.5833756314287952 0.4479378157143976 0  0.8690476190476191 -0.125 0  -0.125 0.8690476190476191 0  -0.8692745600729823 0.125 0  0.8696725120759167 0.125 0  -0.625 0.8711516477451908 0  0.2339522463269718 0.3879558377955778 0  0.2453709502295031 0.5655822922838026 0  0.1730610651637797 0.02021709580868947 0  0.3245402594056757 -0.5644672020485209 0  -0.7291666666666666 -0.4816595441595442 0  -1 -0.375 0  -0.5811140848639904 -0.2127276307675001 0  0.673332592838314 0.2158348143233718 0  0.375 1 0  -0.5714768890989919 0.2985103444040069 0  -1 -0.125 0  -0.8453692574786325 -0.1875 0  -0.3144549134065865 -0.02408675326008025 0  -0.2898414972096258 -0.3336092734780093 0  -0.1075052092206287 -0.4224330421314983 0  -0.05043970703604117 -0.1652278959397459 0  0.6459672950297897 -0.1113415301525317 0  0.4645210271029513 0.6398480556579343 0  0.3512863754411909 0.0937979496253573 0  -0.6063160985568274 0.03891469652249891 0  -0.3428819444444445 0.8690476190476191 0  0.625 1 0  -0.1602164796159982 0.02697860906625157 0  0.04648110064133829 -0.4808416424239687 0  1 0.875 0  -0.3836102479201657 0.6484936449177356 0  -0.3776011723096096 0.263078478984336 0  -0.6024978259969829 -0.3949628096211138 0  0.125 1 0  0.2010781308272777 0.8456221018461906 0  0.2822509696388829 -0.845902544691141 0  -0.3285533674953515 -0.6289773550938936 0  0.3461306793221754 0.278777492464833 0  0.4737475672408696 -0.8508448959534423 0  0.2384632828836344 -0.7029523187242811 0  -0.004777287059791593 0.3759269695907358 0  -0.8499735021850066 -0.3912320205328522 0  0.1222536293721587 0.2963971539625205 0  -0.3769456520999688 -0.203572526805711 0  -0.2749617205755651 -0.8464290792698902 0  0.004805888512766143 -0.747174355248311 0  -0.125 -1 0  -0.06001061822252458 -0.8724007765244854 0  0.875 0.4375 0  0.854421179608893 0.271342359217786 0  0.875 1 0  -0.1499861095763589 0.2358309656934888 0  0.3381943639137225 0.8663061796405532 0  -0.7853090110442228 0.4998412775277108 0  0.7398165998560814 -0.5535192694951373 0  0.1580042122341573 -0.3100246140259917 0  -0.7291666666666667 -0.7142857142857142 0  -0.375 -1 0  0.6483368386154684 0.8514905990110488 0  -0.1295370103291928 -0.2826118305021242 0  0.07458201853700455 0.1123894386563915 0  0.6146465857036327 -0.3161203659316075 0  0.5551898493894731 -0.740296118159085 0  0.375 -1 0  0.482702798370208 -0.084133350091034 0  0.87890625 0.68359375 0  -0.05917195534525846 0.4971092425697621 0  0.1260710309213975 0.6343750312956699 0  0.8690476190476191 -0.3077066815262848 0  -0.2912010232560567 0.3668168386732139 0  -0.875 1 0  -1 0.875 0  1 -0.875 0  0.875 -1 0  -0.8689564281364567 -0.006189266075306407 0  -0.7449425635110547 0.08458938160051771 0  -0.7150266761936593 -0.1739444581417552 0  -0.5260034831318311 -0.711099823962112 0  -0.4724626808827322 -0.871722230709409 0  0.4734436795977052 0.377714794132168 0  -0.875 -1 0  -1 -0.875 0  0.6927189078571988 0.5156567235715964 0  -0.3742497615796874 -0.4296005251260107 0  -0.1969436423297711 -0.6387157229772615 0  -0.6179496409766825 -0.08933356056510935 0  -0.424405057115988 0.04452428810878029 0  -0.08479048335844169 0.1279607007132633 0  0.003830300099055113 0.8712085230656206 0  0.8748778838820267 -1.379218479898026e-05 0  -0.375 1 0  -0.625 1 0  1 0.125 0  -0.125 1 0  1 -0.375 0  1 -0.125 0  1 -0.625 0  0.625 -1 0  0.125 -1 0  -0.625 -1 0  -1 -0.625 0  -1 0.125 0  -1 0.375 0  -1 0.625 0  1 0.375 0  1 0.625 0  0.6325660748712082 0.3335187599557389 0  -0.06420945895056573 0.7549874027425891 0  -0.8769015540914771 0.2478802253893416 0  0.871875 0.871875 0  -0.6868091492840067 0.3270978624973681 0  -0.5363597469565949 0.412994850055505 0  -0.6803734992638302 0.5574295000651103 0  -0.7076253581162534 -0.8803439094224437 0  -0.8778089002295137 -0.5106896447504627 0  -0.3860184984222981 0.530566778071246 0  0.6109900617121508 0.1128453077697081 0  0.3896945134930274 -0.1915382873255086 0  0.7605656944697778 -0.06822134873122943 0  0.3576151269893478 0.5948388411612135 0  -0.5689902680792265 -0.5143596830118065 0  0.6262446286847614 -0.5735657901943212 0  0.2030558252325225 -0.5625263842513452 0  0.6123273142928579 0.7407533260723429 0  0.4016460890123554 -0.3042863223111857 0  -0.59039693199147 0.7578418819188018 0  0.7276932493917544 -0.3705808024528924 0  0.5222536818742854 -0.4713886230400014 0  -0.5101986527137737 0.8848365765607674 0  0.510560172809238 0.5356013299918891 0  -0.3603569195756083 0.75823710606415 0  0.1967279277813232 0.728226870058472 0  -0.6086880986371127 0.1545624071548516 0  -0.38105366729386 0.1511189987807864 0  -0.2944659463671584 -0.7359061804869591 0  0.5060729154966499 -0.3475227845833823 0  -0.09281616240412746 -0.06197858250969457 0  0.7649739583333334 0.6673177083333334 0  0.7628906249999999 0.890234375 0  -0.2666864184909611 0.2585504071132311 0  0.3635064892129658 0.3878003602709461 0  -0.2339409722222222 0.8901937905844155 0  -0.1718792125974916 -0.8957733325456778 0  0.1001768566329531 0.4023510017391879 0  0.3120260172693757 -0.4540546875576884 0  0.7804062804433681 0.1896628610854537 0  0.4087715451998049 0.187961780041608 0  -0.1584963477271457 0.5451611892421655 0  -0.8926817849258324 0.463022006336401 0  0.2338091473445219 -0.07576267331277289 0  0.08171112182813692 -0.2349087687359925 0  0.04635385178956847 -0.1044635073718474 0  -0.4377391632114205 -0.6448874471423088 0  -0.1907678351227189 0.6480215912813945 0  0.300605946475244 0.4741444604171038 0  -0.2145033720757486 -0.06751709909419711 0  0.6069191921170397 -0.005492331448357812 0  0.0214718770761248 0.6032397936031719 0  0.5476675683364878 0.8992752415326501 0  0.4387475014316537 0.9093708953002239 0  -0.4932997685306436 -0.4381009159993523 0  0.2515197695339056 -0.1791673369138964 0  -0.7291666666666667 -0.6088789682539681 0  -0.9166666666666667 -0.6875 0  0.620579540363709 -0.2122431523583302 0  -0.484950136419973 0.6719440339397442 0  0.2857044415400258 0.0137589173127316 0  -0.8945708364098356 -0.288306105327986 0  0.4043102720140535 0.7842914560451557 0  0.04123256238752064 -0.9026968245801402 0  0.2003676884403109 -0.9091888601740487 0  0.1068775558538842 -0.7373377130403223 0  -0.4804566783514427 -0.1763307203045643 0  0.108286342087769 -0.3993789328997278 0  -0.191883080105361 -0.3640821726430649 0  -0.07025064492006244 0.2984876656890053 0  -0.7039324641409584 0.788312126296613 0  -0.7311286585775438 0.8932502354831682 0  0.5171409396884947 0.1503852691889257 0  0.4229392823658633 -0.003216522184234835 0  -0.5621736087218259 -0.919558629836806 0  -0.626474064879544 -0.7266572613636506 0  0.2446828746617422 0.2867616783302419 0  0.1759429608742923 0.4776611759306416 0  -0.3468240303741654 -0.5260416435617549 0  -0.7465808808425306 0.4069574477998361 0  -0.7819962170660292 0.2802441065650652 0  -0.3742623214119594 -0.8547800509641984 0  0.1014498009713561 0.8506721983266377 0  0.4285217620918213 -0.5230190595570253 0  0.4091738370487775 -0.6256346204225141 0  0.78125 0.46875 0  0.90625 0.53125 0  -0.4791801348852565 0.2553992655702126 0  0.7843318610782772 -0.7086046956885941 0  0.8909728264971901 -0.7355183796514634 0  0.7041908166528879 -0.7830649143180282 0  0.731182135
[...]
<PointData  Vectors="f_21"> 
<DataArray  type="Float64"  Name="f_21"  NumberOfComponents="3" format="ascii">-5.9618442987424819e-09 -4.2786342559512695e-08 0.0000000000000000e+00  -5.9618442987424819e-09 -4.2786342559512695e-08 0.0000000000000000e+00  -5.9618442987424819e-09 -4.2786342559512695e-08 0.0000000000000000e+00  -5.9618442987424819e-09 -4.2786342559512695e-08 0.0000000000000000e+00  -6.1210561608208413e-09 -4.4470877352572718e-08 0.0000000000000000e+00  -3.9774483797554068e-09 -4.2738255195363994e-08 0.0000000000000000e+00  -6.1210561608208413e-09 -4.4470877352572718e-08 0.0000000000000000e+00  -3.9774483797554068e-09 -4.2738255195363994e-08 0.0000000000000000e+00  -4.1965197389735081e-09 -4.4410776942938777e-08 0.0000000000000000e+00  -2.5553538984868951e-05 -4.2714898231825489e-08 0.0000000000000000e+00  -5.9967657784501944e-09 2.5505648269937660e-05 0.0000000000000000e+00  -5.9967657784501944e-09 2.5505648269937660e-05 0.0000000000000000e+00  2.5543585468557786e-05 -4.2723837031245057e-08 0.0000000000000000e+00  -2.5553538984868951e-05 -4.2714898231825489e-08 0.0000000000000000e+00  -5.9886179790372189e-09 -2.5592796765285888e-05 0.0000000000000000e+00  2.5543585468557786e-05 -4.2723837031245057e-08 0.0000000000000000e+00  -5.9886179790372189e-09 -2.5592796765285888e-05 0.0000000000000000e+00  6.3827319383094325e-06 6.3430741074828118e-06 0.0000000000000000e+00  -6.3923529144662900e-06 -6.4304939521066649e-06 0.0000000000000000e+00  1.8061105183472807e-05 -4.3803684879897195e-08 0.0000000000000000e+00  -4.4803299254976723e-09 1.8021803258008661e-05 0.0000000000000000e+00  2.3725089751884951e-07 -2.4962673290283514e-05 0.0000000000000000e+00  -2.4873748365562168e-05 -1.7609478579975631e-07 0.0000000000000000e+00  -9.0380331368807707e-06 8.9899246099013920e-06 0.0000000000000000e+00  9.0272757109389802e-06 -9.0764647577143632e-06 0.0000000000000000e+00  -1.2291923380329268e-05 1.3199839265028143e-05 0.0000000000000000e+00  9.6109322995380439e-06 -1.5976226209501611e-05 0.0000000000000000e+00  -1.3249052173336763e-05 1.2243861331035651e-05 0.0000000000000000e+00  2.2021582327335229e-05 -3.4575948124178218e-06 0.0000000000000000e+00  -1.1462290586778742e-05 -1.1500566951624865e-05 0.0000000000000000e+00  1.1451240589954440e-05 1.1414312711670782e-05 0.0000000000000000e+00  2.5493673660102246e-06 2.2080588828672265e-05 0.0000000000000000e+00  -1.3638511169544763e-05 -1.1194152549801480e-05 0.0000000000000000e+00  -1.0575890819043568e-05 -1.4128906660343099e-05 0.0000000000000000e+00  2.1639700571783312e-05 8.2442908129436611e-07 0.0000000000000000e+00  -7.5838859052991809e-06 -1.7142403602429993e-05 0.0000000000000000e+00  6.7624378936090878e-06 -1.5722287029147723e-05 0.0000000000000000e+00  1.0266767133539194e-05 -1.4047265163015273e-05 0.0000000000000000e+00  -1.1041842740510626e-05 1.3378161203469142e-05 0.0000000000000000e+00  1.6685805089019093e-05 6.8701143233399804e-06 0.0000000000000000e+00  1.5678021743293856e-05 8.1780012320038554e-06 0.0000000000000000e+00  2.0849317494684452e-06 2.0015930190844575e-05 0.0000000000000000e+00  -6.0932813656800281e-09 1.8023091379124614e-05 0.0000000000000000e+00  -1.8071258789716314e-05 -4.2722666779264565e-08 0.0000000000000000e+00  1.8059800638882216e-05 -4.2704818727246315e-08 0.0000000000000000e+00  -6.0540301367164220e-09 -1.8108971210547765e-05 0.0000000000000000e+00  -2.5638030990555614e-06 -1.8252940610648300e-05 0.0000000000000000e+00  2.7163296610513963e-06 -1.2561401198053250e-05 0.0000000000000000e+00  -7.4127251878786097e-06 7.5730943617112306e-07 0.0000000000000000e+00  -6.0179849023998460e-09 -1.8110211822445893e-05 0.0000000000000000e+00  -5.9440236868204298e-09 1.8021854904733145e-05 0.0000000000000000e+00  -6.0932813656800281e-09 1.8023091379124614e-05 0.0000000000000000e+00  -6.0540301367164220e-09 -1.8108971210547765e-05 0.0000000000000000e+00  -1.8069826541874649e-05 -4.2740051250089572e-08 0.0000000000000000e+00  1.8061306156385083e-05 -4.2689305503576526e-08 0.0000000000000000e+00  -1.8069826541874649e-05 -4.2740051250089572e-08 0.0000000000000000e+00  -5.9440236868204298e-09 1.8021854904733145e-05 0.0000000000000000e+00  -1.8071258789716314e-05 -4.2722666779264565e-08 0.0000000000000000e+00  1.8059800638882216e-05 -4.2704818727246315e-08 0.0000000000000000e+00  -6.0179849023998460e-09 -1.8110211822445893e-05 0.0000000000000000e+00  1.8061306156385083e-05 -4.2689305503576526e-08 0.0000000000000000e+00  5.1871401264003340e-06 1.7727619528517918e-05 0.0000000000000000e+00  -1.7256960125491361e-05 -3.7972556111087375e-06 0.0000000000000000e+00  -2.1018155259292904e-05 -4.3661496855098809e-06 0.0000000000000000e+00  1.1591284188598187e-05 -4.2226194090972381e-06 0.0000000000000000e+00  -2.6571250171843872e-07 -2.2636544507113387e-05 0.0000000000000000e+00  -1.3989665853567954e-06 1.9330941264219185e-05 0.0000000000000000e+00  -1.0760021896030220e-05 3.2955007353072585e-06 0.0000000000000000e+00  -8.4071208868554661e-07 1.9811599332775825e-05 0.0000000000000000e+00  -1.6488933738298939e-05 -1.8390542898130304e-07 0.0000000000000000e+00  1.0488407132690845e-05 1.0252161849677294e-05 0.0000000000000000e+00  2.0233480450487020e-05 2.7414302037944992e-06 0.0000000000000000e+00  -2.2701800725498536e-05 2.5813786338310997e-06 0.0000000000000000e+00  2.0262737450860655e-05 -5.2284029290735501e-06 0.0000000000000000e+00  -2.0446855251247732e-05 4.8458748847363516e-06 0.0000000000000000e+00  -3.9415804750526720e-06 2.0715305818087587e-05 0.0000000000000000e+00  4.2279849933114719e-06 2.7141963191156315e-06 0.0000000000000000e+00  2.0829445673315418e-05 -2.8121357203634582e-06 0.0000000000000000e+00  1.2523035623280754e-05 -1.2572101361441876e-05 0.0000000000000000e+00  4.3488096068958083e-07 -2.0452668500577414e-05 0.0000000000000000e+00  1.1477953429517811e-05 -8.5865249223898302e-06 0.0000000000000000e+00  -1.1616609452080172e-05 1.1568339576911942e-05 0.0000000000000000e+00  2.3967573944767133e-05 1.5298374483078629e-06 0.0000000000000000e+00  1.0206891891134258e-07 2.5185348029705973e-05 0.0000000000000000e+00  1.1846046026238278e-05 1.3075759431697034e-05 0.0000000000000000e+00  -9.3578684980071967e-07 -7.1572805608362052e-06 0.0000000000000000e+00  -4.2093331235087962e-06 -2.1354703616112642e-05 0.0000000000000000e+00  -1.1702076333400950e-05 -1.1739453011639425e-05 0.0000000000000000e+00  1.5408271910709432e-06 5.8270102031645617e-06 0.0000000000000000e+00  2.1305464944038135e-05 4.1609419364102552e-06 0.0000000000000000e+00  1.1684172381529590e-05 1.1693312307192827e-05 0.0000000000000000e+00  -2.1316214377917542e-05 -4.2465574047301333e-06 0.0000000000000000e+00  -1.6810374349835097e-05 2.5842784671244845e-06 0.0000000000000000e+00  -2.1414810353497648e-05 2.3192451575003902e-06 0.0000000000000000e+00  6.5223472084810931e-06 3.9743991684799483e-06 0.0000000000000000e+00  -8.9652037958045234e-06 9.3960226049315014e-06 0.0000000000000000e+00  -9.4448953662258905e-06 8.9171906651300749e-06 0.0000000000000000e+00  8.9600471588775049e-06 -9.4662413156421570e-06 0.0000000000000000e+00  8.9648548164355527e-06 9.3535844396773380e-06 0.0000000000000000e+00  3.8444507764137751e-06 2.1653615168358515e-05 0.0000000000000000e+00  -1.7795997335512267e-05 5.8622917016238059e-06 0.0000000000000000e+00  -1.7944438839346775e-05 -3.6862762857411335e-06 0.0000000000000000e+00  -1.3919595340538217e-06 1.3144992783221070e-05 0.0000000000000000e+00  1.3102259051058473e-05 -4.4223210082147304e-06 0.0000000000000000e+00  -1.6822266226379232e-05 -1.1489016379263957e-06 0.0000000000000000e+00  -2.3608374574134447e-05 -4.2746463187041514e-08 0.0000000000000000e+00  -3.9948330160747377e-06 -1.9448029569214313e-05 0.0000000000000000e+00  8.2976394011821189e-06 1.6975948627356608e-05 0.0000000000000000e+00  -6.0291957356536856e-09 -2.3648309228330199e-05 0.0000000000000000e+00  4.5821641941031664e-06 -1.4777371870807999e-05 0.0000000000000000e+00  -9.7809516017722019e-06 -4.2774928991101712e-08 0.0000000000000000e+00  -1.2555940346198062e-05 -9.9611500071726381e-06 0.0000000000000000e+00  1.0592225849554806e-06 -2.1312541937944982e-05 0.0000000000000000e+00  1.3572371014355367e-05 -1.0118454966598164e-05 0.0000000000000000e+00  2.3388839831190736e-05 -2.0868865197264334e-06 0.0000000000000000e+00  1.2511384489103430e-05 -3.5450942392143880e-06 0.0000000000000000e+00  -3.8797826649793712e-06 2.1478415585172344e-05 0.0000000000000000e+00  -2.5775228948533020e-06 -1.0843838931497008e-05 0.0000000000000000e+00  -3.3460333687121838e-06 2.1783292820117683e-05 0.0000000000000000e+00  1.0173711984090554e-06 -2.3999764320808316e-05 0.0000000000000000e+00  -4.8466702967105958e-06 2.0578290853030701e-05 0.0000000000000000e+00  -5.8801237252517538e-09 -2.3647701491676259e-05 0.0000000000000000e+00  -1.8985999129339144e-06 -1.2323553390128498e-05 0.0000000000000000e+00  2.5226464377297573e-05 1.7913949472306879e-07 0.0000000000000000e+00  9.7709496580748560e-06 -4.2677266861978643e-08 0.0000000000000000e+00  -8.1646489507143720e-06 1.0687947764087307e-05 0.0000000000000000e+00  -7.0539467362346964e-06 -1.6088122541736184e-05 0.0000000000000000e+00  -7.6537623167510001e-06 -7.8959067280023598e-06 0.0000000000000000e+00  -6.0278712260650266e-09 -9.8215727635068820e-06 0.0000000000000000e+00  -9.6182905590627635e-06 -1.3391835517189412e-05 0.0000000000000000e+00  7.5088540542412415e-06 -1.7569516769729467e-05 0.0000000000000000e+00  1.2038867032605294e-05 8.6016527457338424e-06 0.0000000000000000e+00  -9.1251757172304423e-06 1.4441963604682701e-05 0.0000000000000000e+00  9.4481340136474610e-07 -2.2761399515047846e-05 0.0000000000000000e+00  1.5027475108080274e-05 -1.0401607345220466e-05 0.0000000000000000e+00  -2.3634543040809193e-05 -1.9011781718960894e-07 0.0000000000000000e+00  -2.1451544582178467e-05 -3.9299803643663383e-06 0.0000000000000000e+00  -1.9009377693019022e-05 5.6696727102325076e-06 0.0000000000000000e+00  5.7450704323835583e-06 -1.9030239333929851e-05 0.0000000000000000e+00  7.6936112093396956e-06 1.7164384968769651e-05 0.0000000000000000e+00  1.8217806899653683e-05 -3.1478481880054415e-07 0.0000000000000000e+00  -6.0534010447147478e-09 9.7328767582847202e-06 0.0000000000000000e+00  9.7871042992322754e-06 4.3642475699909842e-06 0.0000000000000000e+00  2.3145414446825542e-05 1.8644605320281567e-06 0.0000000000000000e+00  1.7254137408186901e-05 7.3819161662354048e-06 0.0000000000000000e+00  -6.1197613695143450e-09 -9.8198967762521447e-06 0.0000000000000000e+00  -1.5369227436949975e-05 -8.6019661598128845e-06 0.0000000000000000e+00  -5.0767713654118143e-06 -2.0422827984930092e-05 0.0000000000000000e+00  1.9949335243897396e-05 -5.0605059674561625e-08 0.0000000000000000e+00  -1.7237079478128554e-05 -3.1615474625054544e-06 0.0000000000000000e+00  1.8577369467945250e-05 6.7939679270443912e-06 0.0000000000000000e+00  -1.3175706205994062e-05 1.1933738473083655e-05 0.0000000000000000e+00  -5.9940131657508174e-09 2.3560547439271152e-05 0.0000000000000000e+00  5.1576428397931062e-06 -2.0428732106857998e-05 0.0000000000000000e+00  1.8196015550091440e-05 -6.4260408901405641e-06 0.0000000000000000e+00  -8.5973158847244557e-06 5.5211935432644985e-06 0.0000000000000000e+00  -7.5474597980552412e-06 1.3012848750372110e-05 0.0000000000000000e+00  -3.2156414155153075e-06 -1.7287962867114547e-05 0.0000000000000000e+00  -6.0291957356536856e-09 -2.3648309228330199e-05 0.0000000000000000e+00  3.5859570004530802e-07 2.4581070297799866e-05 0.0000000000000000e+00  1.9878860215101741e-05 -5.2161848359804265e-06 0.0000000000000000e+00  -2.5112855925584386e-05 -8.7195664517023413e-08 0.0000000000000000e+00  -2.1507337076354726e-05 -4.0829629621221665e-06 0.0000000000000000e+00  -1.9276638697723931e-05 5.7604623416542396e-06 0.0000000000000000e+00  -1.4243492300629426e-05 -8.2699065102897068e-06 0.0000000000000000e+00  -5.8138828782817227e-09 9.7345185487468921e-06 0.0000000000000000e+00  9.7709496580748560e-06 -4.2677266861978643e-08 0.0000000000000000e+00  -9.7829921715796651e-06 -4.2897697321218045e-08 0.0000000000000000e+00  -6.1197613695143450e-09 -9.8198967762521447e-06 0.0000000000000000e+00  -4.5945347694231591e-07 -1.0264274065236578e-05 0.0000000000000000e+00  4.6646721688242243e-06 -1.7749013804780184e-05 0.0000000000000000e+00  -8.3060845885115744e-06 -1.7076972459022905e-05 0.0000000000000000e+00  -1.6483104389108085e-06 1.5632984869470627e-05 0.0000000000000000e+00  8.5999434647618896e-07 2.3370980973386243e-05 0.0000000000000000e+00  -1.9786897774854438e-06 9.4980962182341565e-06 0.0000000000000000e+00  -5.8138828782817227e-09 9.7345185487468921e-06 0.0000000000000000e+00  -9.7829921715796651e-06 -4.2897697321218045e-08 0.0000000000000000e+00  1.4517500505228378e-05 -1.0763490817519453e-06 0.0000000000000000e+00  9.5887878330299272e-06 -5.2163446629225171e-06 0.0000000000000000e+00  1.8862332150252754e-05 6.2109749958095343e-06 0.0000000000000000e+00  -2.5664654624106291e-06 -2.2926002845203562e-05 0.0000000000000000e+00  -8.4208224869816387e-07 -2.4632568702937032e-05 0.0000000000000000e+00  -9.6479264746282720e-06 -6.2336238403599907e-06 0.0000000000000000e+00  -1.0062880113483662e-05 -3.2683401511435599e-07 0.0000000000000000e+00  -4.9081159852519129e-09 9.7431190247250055e-06 0.0000000000000000e+00  -5.9940131657508174e-09 2.3560547439271152e-05 0.0000000000000000e+00  -6.0055816300637958e-09 2.3561192057087743e-05 0.0000000000000000e+00  9.7729604873065622e-06 -4.2610795939980521e-08 0.0000000000000000e+00  -6.0534010447147478e-09 9.7328767582847202e-06 0.0000000000000000e+00  -2.3608374574134447e-05 -4.2746463187041514e-08 0.0000000000000000e+00  -9.7809516017722019e-06 -4.2774928991101712e-08 0.0000000000000000e+00  -2.3609198349398545e-05 -4.2674661498639665e-08 0.0000000000000000e+00  -5.8801237252517538e-09 -2.3647701491676259e-05 0.0000000000000000e+00  -6.0278712260650266e-09 -9.8215727635068820e-06 0.0000000000000000e+00  -6.0055816300637958e-09 2.3561192057087743e-05 0.0000000000000000e+00  -2.3609198349398545e-05 -4.2674661498639665e-08 0.0000000000000000e+00  9.7729604873065622e-06 -4.2610795939980521e-08 0.0000000000000000e+00  2.3599221401374595e-05 -4.2678778664968142e-08 0.0000000000000000e+00  2.3598436370174973e-05 -4.2682556575746846e-08 0.0000000000000000e+00  2.3599221401374595e-05 -4.2678778664968142e-08 0.0000000000000000e+00  2.3598436370174973e-05 -4.2682556575746846e-08 0.0000000000000000e+00  8.9489189717698508e-06 1.1627037737606772e-05 0.0000000000000000e+00  -1.7425912060103911e-05 3.6314290876602446e-06 0.0000000000000000e+00  1.6615393894839772e-05 -6.9013886760495435e-06 0.0000000000000000e+00  9.2023302184595011e-06 -9.2513685523785944e-06 0.0000000000000000e+00  1.2107039559893922e-05 -1.1038360151221615e-05 0.0000000000000000e+00  2.7988745207108168e-06 -6.8947564334452821e-06 0.0000000000000000e+00  1.3487024331491543e-05 3.8251545373650500e-06 0.0000000000000000e+00  -5.6990588526832367e-06 1.8843332222807277e-05 0.0000000000000000e+00  -2.3680862187338414e-05 2.7858329793441985e-07 0.0000000000000000e+00  -8.9183869685348761e-06 2.2508923261403633e-06 0.0000000000000000e+00  3.0260561860793541e-06 2.2474534724888824e-05 0.0000000000000000e+00  4.9079556286681597e-06 1.9765137335293882e-05 0.0000000000000000e+00  -3.9716789505695946e-06 1.7013648579590040e-05 0.0000000000000000e+00  -1.0569710771468234e-05 -6.8062920940409937e-06 0.0000000000000000e+00  -5.4934270228699983e-06 1.0822750323749364e-06 0.0000000000000000e+00  -9.6119585757907601e-06 -5.4416114231221576e-06 0.0000000000000000e+00  2.0124703061220352e-05 -3.0140307626744456e-06 0.0000000000000000e+00  6.4164924961763592e-06 -1.6496645307212962e-05 0.0000000000000000e+00  6.3422305535111202e-06 1.3995400159042069e-05 0.0000000000000000e+00  4.9297470629277139e-06 1.7721167206354948e-05 0.0000000000000000e+00  -1.5394705175016818e-05 7.5838798832969430e-06 0.0000000000000000e+00  -1.7823213814135389e-06 2.2438422178626185e-06 0.0000000000000000e+00  2.8361471595226508e-07 2.3839409977724062e-05 0.0000000000000000e+00  8.3668084088007605e-07 -2.8939874122911653e-06 0.0000000000000000e+00  -7.4784696082233807e-06 1.6729179010956322e-05 0.0000000000000000e+00  -1.5701661148144310e-05 -9.7725322347696394e-06 0.0000000000000000e+00  3.9886830895440319e-06 -2.1333933377431152e-05 0.0000000000000000e+00  -4.2674955639232950e-06 -2.1198658614094258e-05 0.0000000000000000e+00  1.1336373916337096e-05 1.3732052572264423e-05 0.0000000000000000e+00  -4.3673363825125049e-07 1.1729692388396387e-05 0.0000000000000000e+00  4.7306409579742119e-06 -7.2501701342223681e-06 0.0000000000000000e+00  1.6338615524617893e-05 -8.6718143241883374e-06 0.0000000000000000e+00  6.3432840369758014e-06 -1.6343164643593680e-05 0.0000000000000000e+00  -1.2412303433276439e-05 -1.3104604764720038e-05 0.0000000000000000e+00  -9.9745860324152540e-06 7.9773166524032390e-06 0.0000000000000000e+00  -6.4155974504720132e-06 1.6078502482745412e-05 0.0000000000000000e+00  7.0418655788804388e-06 1.2393065442263430e-05 0.0000000000000000e+00  -2.3164619699833140e-05 2.3437975264562251e-06 0.0000000000000000e+00  1.4073244428328329e-05 3.0083485374560564e-06 0.0000000000000000e+00  1.1055074689647753e-05 1.3415137173936631e-05 0.0000000000000000e+00  -4.0258176014607125e-06 2.0312395234857251e-05 0.0000000000000000e+00  -2.2226371524107655e-05 1.6812828789245234e-06 0.0000000000000000e+00  2.3942829680300820e-05 -1.0221882026960151e-06 0.0000000000000000e+00  4.4665220262296006e-06 1.6596663332222743e-05 0.0000000000000000e+00  1.6621928660358064e-05 4.7545320095138766e-06 0.0000000000000000e+00  8.1438470282600651e-06 3.4649998744625584e-06 0.0000000000000000e+00  4.4546517162767092e-06 1.0974211523406765e-05 0.0000000000000000e+00  -1.8861733304908550e-05 6.4186527519083999e-06 0.0000000000000000e+00  -1.4933597455657953e-05 1.6349907099673949e-06 0.0000000000000000e+00  4.1988464010980614e-06 -1.5629792537116266e-05 0.0000000000000000e+00  -1.4924471476127881e-07 2.4073674823582229e-05 0.0000000000000000e+00  -2.4167209882230198e-05 -5.9326679102922012e-07 0.0000000000000000e+00  1.1801116230914610e-06 -2.4052453600448065e-05 0.0000000000000000e+00  -1.3784097310424915e-06 -2.4111835478351548e-05 0.0000000000000000e+00  5.2302525151111548e-07 -4.9791631173506374e-06 0.0000000000000000e+00  9.5899174957483798e-06 1.5307097652919074e-05 0.0000000000000000e+00  -1.5874738200205923e-05 6.4002407261135963e-06 0.0000000000000000e+00  -2.0524600412934843e-05 3.6310153097707860e-06 0.0000000000000000e+00  -5.8475078996251038e-06 1.8609721564031535e-05 0.0000000000000000e+00  -1.0412782774069476e-06 1.3081451761474089e-05 0.0000000000000000e+00  -6.9240028003647736e-07 1.9911410015209772e-05 0.0000000000000000e+00  -1.9015246740844055e-05 -5.1697904076574395e-06 0.0000000000000000e+00  -4.7492284924335646e-06 -1.9055073828635174e-05 0.0000000000000000e+00  7.6187965881173197e-06 -3.1916400665273499e-06 0.0000000000000000e+00  5.8064650845683212e-06 -1.4477631588960324e-05 0.0000000000000000e+00  1.7716301422435356e-05 -5.7556631342866708e-06 0.0000000000000000e+00  8.2069283057336737e-07 -2.1730160627416577e-05 0.0000000000000000e+00  2.2886872095639811e-05 2.6056048728068332e-06 0.0000000000000000e+00  1.9151658993969050e-05 -6.0430146226571480e-06 0.0000000000000000e+00  -2.0102850526103870e-05 -3.3531830336361295e-06 0.0000000000000000e+00  9.4178529569830199e-06 1.6074704368072341e-05 0.0000000000000000e+00  5.5769107786669849e-06 1.7997444309840287e-05 0.0000000000000000e+00  6.2151910454587594e-07 2.2673167771628653e-05 0.0000000000000000e+00  5.7953301295004313e-08 2.4758362799543038e-05 0.0000000000000000e+00  -1.2457022303369976e-06 2.4223945096048939e-05 0.0000000000000000e+00  -7.4895784672526371e-06 1.5350137475984122e-05 0.0000000000000000e+00  -1.4400508626265489e-05 1.0983826463321228e-05 0.0000000000000000e+00  -2.1695943931103096e-05 8.9608464205862809e-07 0.0000000000000000e+00  1.1781090918824225e-05 1.8070550213303450e-06 0.0