<?xml version="1.0"?>
<VTKFile type="UnstructuredGrid"  version="0.1"  >
<UnstructuredGrid>
<Piece  NumberOfPoints="5315" NumberOfCells="10372">
<Points>
<DataArray  type="Float64"  NumberOfComponents="3"  format="ascii">-1 -1 0  1 -1 0  1 1 0  -1 1 0  0 -1 0  1 0 0  0 1 0  -1 0 0  0 0 0  -1 -0.5 0  -0.5 -1 0  -0.5 1 0  -1 0.5 0  1 -0.5 0  0.5 -1 0  1 0.5 0  0.5 1 0  0.4166666666666666 -0.4166666666666667 0  -0.4166666666666667 0.4166666666666667 0  -0.25 -0.5 0  0.5 0.25 0  -0.4861111111111112 -0.06944444444444445 0  0.0732758620689655 0.507183908045977 0  -0.625 -0.625 0  0.625 0.625 0  0.7380952380952381 -0.25 0  -0.7099116161616161 0.2105429292929293 0  -0.25 0.7380952380952381 0  0.105392156862745 -0.6348039215686275 0  0.6770833333333334 -0.6770833333333333 0  -0.6770833333333334 0.6770833333333334 0  0.3472222222222222 -0.06944444444444446 0  -0.7264957264957265 -0.3044871794871795 0  0.3141940982507127 0.7297313660835709 0  0.02049587951122483 -0.3227479397556124 0  -0.2690972222222223 0.1475694444444444 0  0.3859500089908372 -0.7274430156831472 0  -0.2228477945123298 -0.1761765495248019 0  0.2182539682539683 0.1884920634920635 0  0.75 0.375 0  -0.145442219440968 -0.7602211097204841 0  0.7088913690476191 0.0427827380952381 0  -0.75 -1 0  -1 -0.75 0  1 0.75 0  0.75 1 0  -0.7439982703698937 -0.04614153195464455 0  -0.4609235096577606 -0.3356498099556895 0  0.4063134471431929 0.4895621842856023 0  0.25 -1 0  -0.25 -1 0  -0.75 1 0  0.75 -1 0  -1 -0.25 0  -1 0.25 0  1 -0.25 0  -0.25 1 0  1 -0.75 0  -1 0.75 0  0.25 1 0  1 0.25 0  -0.4041423272138783 -0.7597141090712928 0  0.06500839607911253 0.7578103030529481 0  -0.1572801182352047 0.3838997021864289 0  -0.6528005242053915 0.4409494757946086 0  -0.4930160984848485 0.1544744318181818 0  -0.4732142857142858 0.7752976190476191 0  0.6398809523809523 -0.4538690476190476 0  0.5166054117396399 -0.2161233620965164 0  -0.002273787244753427 0.2232363985975174 0  0.1500564496765022 -0.1524955293952667 0  0.2016720420046758 -0.4410343282803009 0  -0.08495178036419618 0.6274139771124571 0  -0.8367311471133162 0.3642591720794645 0  -0.8333333333333334 -0.625 0  -0.594323836800685 -0.8231079456002283 0  -0.4466957714776065 -0.5349126855671806 0  0.8125 0.5625 0  0.78125 0.78125 0  0.5091392650016769 0.7947130883338923 0  0.125 -0.8382681931833136 0  -0.8184523809523809 -0.8184523809523809 0  -0.07781530426104531 -0.5819319697006881 0  0.5085055196703295 0.04967610411902112 0  0.2918471072074933 -0.276017202318847 0  0.5120763537765269 -0.5898771553229597 0  0.625 -0.8585349462365591 0  0.8158532234335381 -0.8158532234335381 0  -0.5198088446315396 0.5739411553684605 0  -0.8585349462365591 0.625 0  -0.8150493805516597 0.8156205699829586 0  0.8585349462365591 -0.625 0  -0.2688268348649726 0.5439331383603209 0  0.8242100426758139 -0.4436043596336612 0  0.5833756314287952 0.4479378157143976 0  0.8690476190476191 -0.125 0  -0.125 0.8690476190476191 0  -0.8692745600729823 0.125 0  0.8696725120759167 0.125 0  -0.625 0.8711516477451908 0  0.2339522463269718 0.3879558377955778 0  0.2453709502295031 0.5655822922838026 0  0.1730610651637797 0.02021709580868947 0  0.3245402594056757 -0.5644672020485209 0  -0.7291666666666666 -0.4816595441595442 0  -1 -0.375 0  -0.5811140848639904 -0.2127276307675001 0  0.673332592838314 0.2158348143233718 0  0.375 1 0  -0.5714768890989919 0.2985103444040069 0  -1 -0.125 0  -0.8453692574786325 -0.1875 0  -0.3144549134065865 -0.02408675326008025 0  -0.2898414972096258 -0.3336092734780093 0  -0.1075052092206287 -0.4224330421314983 0  -0.05043970703604117 -0.1652278959397459 0  0.6459672950297897 -0.1113415301525317 0  0.4645210271029513 0.6398480556579343 0  0.3512863754411909 0.0937979496253573 0  -0.6063160985568274 0.03891469652249891 0  -0.3428819444444445 0.8690476190476191 0  0.625 1 0  -0.1602164796159982 0.02697860906625157 0  0.04648110064133829 -0.4808416424239687 0  1 0.875 0  -0.3836102479201657 0.6484936449177356 0  -0.3776011723096096 0.263078478984336 0  -0.6024978259969829 -0.3949628096211138 0  0.125 1 0  0.2010781308272777 0.8456221018461906 0  0.2822509696388829 -0.845902544691141 0  -0.3285533674953515 -0.6289773550938936 0  0.3461306793221754 0.278777492464833 0  0.4737475672408696 -0.8508448959534423 0  0.2384632828836344 -0.7029523187242811 0  -0.004777287059791593 0.3759269695907358 0  -0.8499735021850066 -0.3912320205328522 0  0.1222536293721587 0.2963971539625205 0  -0.3769456520999688 -0.203572526805711 0  -0.2749617205755651 -0.8464290792698902 0  0.004805888512766143 -0.747174355248311 0  -0.125 -1 0  -0.06001061822252458 -0.8724007765244854 0  0.875 0.4375 0  0.854421179608893 0.271342359217786 0  0.875 1 0  -0.1499861095763589 0.2358309656934888 0  0.3381943639137225 0.8663061796405532 0  -0.7853090110442228 0.4998412775277108 0  0.7398165998560814 -0.5535192694951373 0  0.1580042122341573 -0.3100246140259917 0  -0.7291666666666667 -0.7142857142857142 0  -0.375 -1 0  0.6483368386154684 0.8514905990110488 0  -0.1295370103291928 -0.2826118305021242 0  0.07458201853700455 0.1123894386563915 0  0.6146465857036327 -0.3161203659316075 0  0.5551898493894731 -0.740296118159085 0  0.375 -1 0  0.482702798370208 -0.084133350091034 0  0.87890625 0.68359375 0  -0.05917195534525846 0.4971092425697621 0  0.1260710309213975 0.6343750312956699 0  0.8690476190476191 -0.3077066815262848 0  -0.2912010232560567 0.3668168386732139 0  -0.875 1 0  -1 0.875 0  1 -0.875 0  0.875 -1 0  -0.8689564281364567 -0.006189266075306407 0  -0.7449425635110547 0.08458938160051771 0  -0.7150266761936593 -0.1739444581417552 0  -0.5260034831318311 -0.711099823962112 0  -0.4724626808827322 -0.871722230709409 0  0.4734436795977052 0.377714794132168 0  -0.875 -1 0  -1 -0.875 0  0.6927189078571988 0.5156567235715964 0  -0.3742497615796874 -0.4296005251260107 0  -0.1969436423297711 -0.6387157229772615 0  -0.6179496409766825 -0.08933356056510935 0  -0.424405057115988 0.04452428810878029 0  -0.08479048335844169 0.1279607007132633 0  0.003830300099055113 0.8712085230656206 0  0.8748778838820267 -1.379218479898026e-05 0  -0.375 1 0  -0.625 1 0  1 0.125 0  -0.125 1 0  1 -0.375 0  1 -0.125 0  1 -0.625 0  0.625 -1 0  0.125 -1 0  -0.625 -1 0  -1 -0.625 0  -1 0.125 0  -1 0.375 0  -1 0.625 0  1 0.375 0  1 0.625 0  0.6325660748712082 0.3335187599557389 0  -0.06420945895056573 0.7549874027425891 0  -0.8769015540914771 0.2478802253893416 0  0.871875 0.871875 0  -0.6868091492840067 0.3270978624973681 0  -0.5363597469565949 0.412994850055505 0  -0.6803734992638302 0.5574295000651103 0  -0.7076253581162534 -0.8803439094224437 0  -0.8778089002295137 -0.5106896447504627 0  -0.3860184984222981 0.530566778071246 0  0.6109900617121508 0.1128453077697081 0  0.3896945134930274 -0.1915382873255086 0  0.7605656944697778 -0.06822134873122943 0  0.3576151269893478 0.5948388411612135 0  -0.5689902680792265 -0.5143596830118065 0  0.6262446286847614 -0.5735657901943212 0  0.2030558252325225 -0.5625263842513452 0  0.6123273142928579 0.7407533260723429 0  0.4016460890123554 -0.3042863223111857 0  -0.59039693199147 0.7578418819188018 0  0.7276932493917544 -0.3705808024528924 0  0.5222536818742854 -0.4713886230400014 0  -0.5101986527137737 0.8848365765607674 0  0.510560172809238 0.5356013299918891 0  -0.3603569195756083 0.75823710606415 0  0.1967279277813232 0.728226870058472 0  -0.6086880986371127 0.1545624071548516 0  -0.38105366729386 0.1511189987807864 0  -0.2944659463671584 -0.7359061804869591 0  0.5060729154966499 -0.3475227845833823 0  -0.09281616240412746 -0.06197858250969457 0  0.7649739583333334 0.6673177083333334 0  0.7628906249999999 0.890234375 0  -0.2666864184909611 0.2585504071132311 0  0.3635064892129658 0.3878003602709461 0  -0.2339409722222222 0.8901937905844155 0  -0.1718792125974916 -0.8957733325456778 0  0.1001768566329531 0.4023510017391879 0  0.3120260172693757 -0.4540546875576884 0  0.7804062804433681 0.1896628610854537 0  0.4087715451998049 0.187961780041608 0  -0.1584963477271457 0.5451611892421655 0  -0.8926817849258324 0.463022006336401 0  0.2338091473445219 -0.07576267331277289 0  0.08171112182813692 -0.2349087687359925 0  0.04635385178956847 -0.1044635073718474 0  -0.4377391632114205 -0.6448874471423088 0  -0.1907678351227189 0.6480215912813945 0  0.300605946475244 0.4741444604171038 0  -0.2145033720757486 -0.06751709909419711 0  0.6069191921170397 -0.005492331448357812 0  0.0214718770761248 0.6032397936031719 0  0.5476675683364878 0.8992752415326501 0  0.4387475014316537 0.9093708953002239 0  -0.4932997685306436 -0.4381009159993523 0  0.2515197695339056 -0.1791673369138964 0  -0.7291666666666667 -0.6088789682539681 0  -0.9166666666666667 -0.6875 0  0.620579540363709 -0.2122431523583302 0  -0.484950136419973 0.6719440339397442 0  0.2857044415400258 0.0137589173127316 0  -0.8945708364098356 -0.288306105327986 0  0.4043102720140535 0.7842914560451557 0  0.04123256238752064 -0.9026968245801402 0  0.2003676884403109 -0.9091888601740487 0  0.1068775558538842 -0.7373377130403223 0  -0.4804566783514427 -0.1763307203045643 0  0.108286342087769 -0.3993789328997278 0  -0.191883080105361 -0.3640821726430649 0  -0.07025064492006244 0.2984876656890053 0  -0.7039324641409584 0.788312126296613 0  -0.7311286585775438 0.8932502354831682 0  0.5171409396884947 0.1503852691889257 0  0.4229392823658633 -0.003216522184234835 0  -0.5621736087218259 -0.919558629836806 0  -0.626474064879544 -0.7266572613636506 0  0.2446828746617422 0.2867616783302419 0  0.1759429608742923 0.4776611759306416 0  -0.3468240303741654 -0.5260416435617549 0  -0.7465808808425306 0.4069574477998361 0  -0.7819962170660292 0.2802441065650652 0  -0.3742623214119594 -0.8547800509641984 0  0.1014498009713561 0.8506721983266377 0  0.4285217620918213 -0.5230190595570253 0  0.4091738370487775 -0.6256346204225141 0  0.78125 0.46875 0  0.90625 0.53125 0  -0.4791801348852565 0.2553992655702126 0  0.7843318610782772 -0.7086046956885941 0  0.8909728264971901 -0.7355183796514634 0  0.7041908166528879 -0.7830649143180282 0  0.731182135
[...]
<PointData  Vectors="f_21"> 
<DataArray  type="Float64"  Name="f_21"  NumberOfComponents="3" format="ascii">-5.3707174066199732e-07 -1.6144694799290328e-06 0.0000000000000000e+00  -5.3707174066199732e-07 -1.6144694799290328e-06 0.0000000000000000e+00  -5.3707174066199732e-07 -1.6144694799290328e-06 0.0000000000000000e+00  -5.3707174066199732e-07 -1.6144694799290328e-06 0.0000000000000000e+00  7.8029997736398355e-08 -2.4463611565856052e-06 0.0000000000000000e+00  2.7096751585645077e-07 -4.2888808027299834e-07 0.0000000000000000e+00  7.8029997736398355e-08 -2.4463611565856052e-06 0.0000000000000000e+00  2.7096751585645077e-07 -4.2888808027299834e-07 0.0000000000000000e+00  -1.5854578428167353e-06 3.2209178975820094e-06 0.0000000000000000e+00  -5.2254801309773218e-02 -8.7588333404353861e-07 0.0000000000000000e+00  -2.0991619694561790e-07 5.2255543026344109e-02 0.0000000000000000e+00  -2.0991619694561790e-07 5.2255543026344109e-02 0.0000000000000000e+00  5.2257473563884278e-02 1.0154154350236649e-07 0.0000000000000000e+00  -5.2254801309773218e-02 -8.7588333404353861e-07 0.0000000000000000e+00  -7.8994087761665618e-07 -5.2254068021486764e-02 0.0000000000000000e+00  5.2257473563884278e-02 1.0154154350236649e-07 0.0000000000000000e+00  -7.8994087761665618e-07 -5.2254068021486764e-02 0.0000000000000000e+00  1.3064741190065218e-02 1.3063318689115975e-02 0.0000000000000000e+00  -1.3066095610394637e-02 -1.3063659604589703e-02 0.0000000000000000e+00  3.6949272191327355e-02 9.3826359875841547e-07 0.0000000000000000e+00  -7.7798316337441781e-08 3.6950800509342185e-02 0.0000000000000000e+00  4.9545318710875880e-04 -5.0969181052150918e-02 0.0000000000000000e+00  -5.0862405772440437e-02 -2.7065791172655059e-04 0.0000000000000000e+00  -1.8474355669682977e-02 1.8474645953165190e-02 0.0000000000000000e+00  1.8473719452163279e-02 -1.8475084427136537e-02 0.0000000000000000e+00  -2.5132731265391502e-02 2.7085539209734399e-02 0.0000000000000000e+00  1.9667661666799924e-02 -3.2588224509312931e-02 0.0000000000000000e+00  -2.7087053173895422e-02 2.5131515823090828e-02 0.0000000000000000e+00  4.5051075096501303e-02 -6.9806867078682708e-03 0.0000000000000000e+00  -2.3434140108741744e-02 -2.3431817630346682e-02 0.0000000000000000e+00  2.3433398345579760e-02 2.3432241468244963e-02 0.0000000000000000e+00  5.2225470286001848e-03 4.5252560965081859e-02 0.0000000000000000e+00  -2.7885693814681319e-02 -2.2808540220057811e-02 0.0000000000000000e+00  -2.1619231386982723e-02 -2.8807606171759290e-02 0.0000000000000000e+00  4.4268538337533421e-02 1.7763676254178306e-03 0.0000000000000000e+00  -1.5503685016668324e-02 -3.4971206187211459e-02 0.0000000000000000e+00  1.3841794117587954e-02 -3.2065851951741893e-02 0.0000000000000000e+00  2.1006266156713926e-02 -2.8641907589385777e-02 0.0000000000000000e+00  -2.2574784121302843e-02 2.7453784731562958e-02 0.0000000000000000e+00  3.4136987916671684e-02 1.4140627648343730e-02 0.0000000000000000e+00  3.2077086233636393e-02 1.6817330842495575e-02 0.0000000000000000e+00  4.2712554026834047e-03 4.1028242759335844e-02 0.0000000000000000e+00  5.7538548386749683e-07 3.6950970729654108e-02 0.0000000000000000e+00  -3.6949527211356220e-02 7.7299650657455365e-07 0.0000000000000000e+00  3.6950660135705429e-02 -6.2354011967675708e-07 0.0000000000000000e+00  -9.8400485610533941e-07 -3.6949303911650681e-02 0.0000000000000000e+00  -5.2349954911223712e-03 -3.7244598149605658e-02 0.0000000000000000e+00  5.5659809007610776e-03 -2.5604055890660577e-02 0.0000000000000000e+00  -1.5150825609349539e-02 1.6366798039869207e-03 0.0000000000000000e+00  3.1364563990179867e-07 -3.6950391143052437e-02 0.0000000000000000e+00  -6.1853286597213684e-07 3.6950724119181412e-02 0.0000000000000000e+00  5.7538548386749683e-07 3.6950970729654108e-02 0.0000000000000000e+00  -9.8400485610533941e-07 -3.6949303911650681e-02 0.0000000000000000e+00  -3.6948521222754376e-02 -8.3193988579401184e-07 0.0000000000000000e+00  3.6949831678312318e-02 5.8027240802096041e-07 0.0000000000000000e+00  -3.6948521222754376e-02 -8.3193988579401184e-07 0.0000000000000000e+00  -6.1853286597213684e-07 3.6950724119181412e-02 0.0000000000000000e+00  -3.6949527211356220e-02 7.7299650657455365e-07 0.0000000000000000e+00  3.6950660135705429e-02 -6.2354011967675708e-07 0.0000000000000000e+00  3.1364563990179867e-07 -3.6950391143052437e-02 0.0000000000000000e+00  3.6949831678312318e-02 5.8027240802096041e-07 0.0000000000000000e+00  1.0618346925818622e-02 3.6347823882064215e-02 0.0000000000000000e+00  -3.5282244766137283e-02 -7.6765206623382624e-03 0.0000000000000000e+00  -4.2979219109220861e-02 -8.8401563379188960e-03 0.0000000000000000e+00  2.3718853665281162e-02 -8.5494164483061116e-03 0.0000000000000000e+00  -5.3562453439965545e-04 -4.6207975362551855e-02 0.0000000000000000e+00  -2.8494991661094670e-03 3.9625016087053801e-02 0.0000000000000000e+00  -2.1997930498455696e-02 6.8282904994060147e-03 0.0000000000000000e+00  -1.7132877021192557e-03 4.0609603805112637e-02 0.0000000000000000e+00  -3.3716383767610027e-02 -2.8416696535252592e-04 0.0000000000000000e+00  2.1460451365162139e-02 2.1059818342235113e-02 0.0000000000000000e+00  4.1393014122187329e-02 5.6986099351506786e-03 0.0000000000000000e+00  -4.6421675009387313e-02 5.3696846379463151e-03 0.0000000000000000e+00  4.1452816486530361e-02 -1.0608111028960162e-02 0.0000000000000000e+00  -4.1808346632054044e-02 9.9974855202056082e-03 0.0000000000000000e+00  -8.0492546145903062e-03 4.2457283670124898e-02 0.0000000000000000e+00  8.6575104272605240e-03 5.6412305833202572e-03 0.0000000000000000e+00  4.2612984067870473e-02 -5.6616826628094804e-03 0.0000000000000000e+00  2.5625114963593897e-02 -2.5626029379976857e-02 0.0000000000000000e+00  9.0326379767423511e-04 -4.1743371469094459e-02 0.0000000000000000e+00  2.3488186266451560e-02 -1.7470848921091648e-02 0.0000000000000000e+00  -2.3747628280961185e-02 2.3747797615146518e-02 0.0000000000000000e+00  4.9030390803819671e-02 3.2186160995475734e-03 0.0000000000000000e+00  2.1895840599692686e-04 5.1602848459096386e-02 0.0000000000000000e+00  2.4237852986494866e-02 2.6833924618167065e-02 0.0000000000000000e+00  -1.9046439389064367e-03 -1.4547753237208758e-02 0.0000000000000000e+00  -8.5979351738265843e-03 -4.3586690764686402e-02 0.0000000000000000e+00  -2.3923330828008141e-02 -2.3922282449019058e-02 0.0000000000000000e+00  3.1638254386396020e-03 1.2005963206432281e-02 0.0000000000000000e+00  4.3587777694398325e-02 8.5972880697519974e-03 0.0000000000000000e+00  2.3910007946051370e-02 2.4003084083490778e-02 0.0000000000000000e+00  -4.3586681132307632e-02 -8.5961427447990586e-03 0.0000000000000000e+00  -3.4372579430288409e-02 5.3736174436805522e-03 0.0000000000000000e+00  -4.3791340265074349e-02 4.8297964411362039e-03 0.0000000000000000e+00  1.3351008761195077e-02 8.2168792586088651e-03 0.0000000000000000e+00  -1.8327948568427361e-02 1.9305756164596746e-02 0.0000000000000000e+00  -1.9306436371450051e-02 1.8329342832215226e-02 0.0000000000000000e+00  1.8334353111983247e-02 -1.9272353701190681e-02 0.0000000000000000e+00  1.8344107791488512e-02 1.9218980210625358e-02 0.0000000000000000e+00  7.8763577435189830e-03 4.4375644858958348e-02 0.0000000000000000e+00  -3.6387143471637712e-02 1.2081101126779490e-02 0.0000000000000000e+00  -3.6690186991291285e-02 -7.4497849410073884e-03 0.0000000000000000e+00  -2.8390015140157170e-03 2.6977144809285817e-02 0.0000000000000000e+00  2.6808722666720474e-02 -8.9541978490886905e-03 0.0000000000000000e+00  -3.4396366433221304e-02 -2.2622198750136152e-03 0.0000000000000000e+00  -4.8275960507086622e-02 -4.9671028663740011e-07 0.0000000000000000e+00  -8.1621846120506231e-03 -3.9690140268558563e-02 0.0000000000000000e+00  1.6979986297505554e-02 3.4809953391832939e-02 0.0000000000000000e+00  3.6844324222738890e-07 -4.8279396770342625e-02 0.0000000000000000e+00  9.3821917204118029e-03 -3.0134721734142191e-02 0.0000000000000000e+00  -1.9996327410521143e-02 -1.5145066147328526e-07 0.0000000000000000e+00  -2.5671116311340218e-02 -2.0287306044365863e-02 0.0000000000000000e+00  2.1738326783833748e-03 -4.3500537457246774e-02 0.0000000000000000e+00  2.7767979676066614e-02 -2.0605890120654575e-02 0.0000000000000000e+00  4.7847079335318052e-02 -4.1798362644066443e-03 0.0000000000000000e+00  2.5595628376096895e-02 -7.1610477917282674e-03 0.0000000000000000e+00  -7.9283489224342019e-03 4.4017474626511129e-02 0.0000000000000000e+00  -5.2592687954790577e-03 -2.2089870213511487e-02 0.0000000000000000e+00  -6.8348635888073285e-03 4.4644328731511744e-02 0.0000000000000000e+00  2.0888114030017412e-03 -4.8998946747134925e-02 0.0000000000000000e+00  -9.9011848058787738e-03 4.2177318849599750e-02 0.0000000000000000e+00  2.2288753826675277e-07 -4.8280359887324993e-02 0.0000000000000000e+00  -3.8769201432461956e-03 -2.5115173832589269e-02 0.0000000000000000e+00  5.1607018473774136e-02 4.5691550890154678e-04 0.0000000000000000e+00  1.9996343365273051e-02 5.6741195113787802e-07 0.0000000000000000e+00  -1.6688012533012712e-02 2.1949243140326705e-02 0.0000000000000000e+00  -1.4418021061952415e-02 -3.2815162003981511e-02 0.0000000000000000e+00  -1.5642642994183956e-02 -1.6060645123313216e-02 0.0000000000000000e+00  2.3602958111672489e-08 -1.9997685809251767e-02 0.0000000000000000e+00  -1.9659148369746290e-02 -2.7299926433659808e-02 0.0000000000000000e+00  1.5370167610861777e-02 -3.5844466105163786e-02 0.0000000000000000e+00  2.4634015117464540e-02 1.7682608404803690e-02 0.0000000000000000e+00  -1.8652511793068916e-02 2.9629364643269457e-02 0.0000000000000000e+00  1.9451070727394908e-03 -4.6463196050444647e-02 0.0000000000000000e+00  3.0747119886412998e-02 -2.1182972430873023e-02 0.0000000000000000e+00  -4.8329488243063566e-02 -2.9618278358620176e-04 0.0000000000000000e+00  -4.3865003524786179e-02 -7.9516135348363486e-03 0.0000000000000000e+00  -3.8870390988406354e-02 1.1688158247720709e-02 0.0000000000000000e+00  1.1756897696555484e-02 -3.8834027912666033e-02 0.0000000000000000e+00  1.5746847016516977e-02 3.5196062300204119e-02 0.0000000000000000e+00  3.7271558899356357e-02 -5.5279077120911745e-04 0.0000000000000000e+00  -5.0757004145765770e-07 1.9996106579649391e-02 0.0000000000000000e+00  2.0028370812839098e-02 9.0182232407831995e-03 0.0000000000000000e+00  4.7347795665608795e-02 3.9022430150966723e-03 0.0000000000000000e+00  3.5298998115158943e-02 1.5186533120802379e-02 0.0000000000000000e+00  -2.7814233387294706e-08 -1.9995306993469148e-02 0.0000000000000000e+00  -3.1426385077579465e-02 -1.7503206097983715e-02 0.0000000000000000e+00  -1.0370466389345837e-02 -4.1681570039351232e-02 0.0000000000000000e+00  4.0813703651991030e-02 -1.6120249376974567e-05 0.0000000000000000e+00  -3.5245668547896174e-02 -6.3795589558127497e-03 0.0000000000000000e+00  3.8006868309431931e-02 1.3986142662807729e-02 0.0000000000000000e+00  -2.6936650080997774e-02 2.4496168455733693e-02 0.0000000000000000e+00  6.2888261273990261e-07 4.8277815374154952e-02 0.0000000000000000e+00  1.0560494952695421e-02 -4.1692368380667533e-02 0.0000000000000000e+00  3.7223668124148228e-02 -1.3053254159845280e-02 0.0000000000000000e+00  -1.7574807390381770e-02 1.1383322835040552e-02 0.0000000000000000e+00  -1.5429456138355641e-02 2.6703085527238931e-02 0.0000000000000000e+00  -6.5650982339734805e-03 -3.5268750898397504e-02 0.0000000000000000e+00  3.6844324222738890e-07 -4.8279396770342625e-02 0.0000000000000000e+00  7.4171096982934696e-04 5.0363350655116677e-02 0.0000000000000000e+00  4.0671900095803272e-02 -1.0581886001215512e-02 0.0000000000000000e+00  -5.1354630045259919e-02 -8.8782421535835797e-05 0.0000000000000000e+00  -4.3976537771899180e-02 -8.2589721055525284e-03 0.0000000000000000e+00  -3.9418300386750017e-02 1.1869418969432430e-02 0.0000000000000000e+00  -2.9123019306667941e-02 -1.6825139666296843e-02 0.0000000000000000e+00  7.7917795465932596e-07 1.9995163415352523e-02 0.0000000000000000e+00  1.9996343365273051e-02 5.6741195113787802e-07 0.0000000000000000e+00  -1.9999497078488370e-02 3.7146258752047706e-07 0.0000000000000000e+00  -2.7814233387294706e-08 -1.9995306993469148e-02 0.0000000000000000e+00  -9.2986161544536278e-04 -2.0909722543108470e-02 0.0000000000000000e+00  9.5495648981160156e-03 -3.6211884640578305e-02 0.0000000000000000e+00  -1.6979948366764381e-02 -3.4840719152621456e-02 0.0000000000000000e+00  -3.3590733400459920e-03 3.2062550333121144e-02 0.0000000000000000e+00  1.7685940147478439e-03 4.7889638506431118e-02 0.0000000000000000e+00  -4.0372708620051824e-03 1.9517607466795463e-02 0.0000000000000000e+00  7.7917795465932596e-07 1.9995163415352523e-02 0.0000000000000000e+00  -1.9999497078488370e-02 3.7146258752047706e-07 0.0000000000000000e+00  2.9703225290165523e-02 -2.1133906518802192e-03 0.0000000000000000e+00  1.9619796689836540e-02 -1.0578823871062945e-02 0.0000000000000000e+00  3.8588857787196715e-02 1.2792625348121910e-02 0.0000000000000000e+00  -5.2405309157667794e-03 -4.6800598928944830e-02 0.0000000000000000e+00  -1.7135761529979891e-03 -5.0290800089755956e-02 0.0000000000000000e+00  -1.9725144668936406e-02 -1.2657020949089139e-02 0.0000000000000000e+00  -2.0570233586506354e-02 -5.7829092110088412e-04 0.0000000000000000e+00  -1.8628880075079834e-06 2.0016075541213874e-02 0.0000000000000000e+00  6.2888261273990261e-07 4.8277815374154952e-02 0.0000000000000000e+00  -1.0551147770003894e-06 4.8278173758981940e-02 0.0000000000000000e+00  1.9996327565758309e-02 6.6332927629997340e-07 0.0000000000000000e+00  -5.0757004145765770e-07 1.9996106579649391e-02 0.0000000000000000e+00  -4.8275960507086622e-02 -4.9671028663740011e-07 0.0000000000000000e+00  -1.9996327410521143e-02 -1.5145066147328526e-07 0.0000000000000000e+00  -4.8276804556245057e-02 -5.5262791496916255e-07 0.0000000000000000e+00  2.2288753826675277e-07 -4.8280359887324993e-02 0.0000000000000000e+00  2.3602958111672489e-08 -1.9997685809251767e-02 0.0000000000000000e+00  -1.0551147770003894e-06 4.8278173758981940e-02 0.0000000000000000e+00  -4.8276804556245057e-02 -5.5262791496916255e-07 0.0000000000000000e+00  1.9996327565758309e-02 6.6332927629997340e-07 0.0000000000000000e+00  4.8276602548226993e-02 1.3868588546666884e-07 0.0000000000000000e+00  4.8278485678012330e-02 2.6176650164439176e-07 0.0000000000000000e+00  4.8276602548226993e-02 1.3868588546666884e-07 0.0000000000000000e+00  4.8278485678012330e-02 2.6176650164439176e-07 0.0000000000000000e+00  1.8313431143669900e-02 2.3869867254928786e-02 0.0000000000000000e+00  -3.5628801662380680e-02 7.5170817876069832e-03 0.0000000000000000e+00  3.3991730229458415e-02 -1.4027562523615655e-02 0.0000000000000000e+00  1.8833638829859261e-02 -1.8833431879766542e-02 0.0000000000000000e+00  2.4772854324272210e-02 -2.2489545089783118e-02 0.0000000000000000e+00  5.7336318158624890e-03 -1.4013858949936613e-02 0.0000000000000000e+00  2.7596508207063320e-02 7.9118832843861290e-03 0.0000000000000000e+00  -1.1644203013501357e-02 3.8626910259860300e-02 0.0000000000000000e+00  -4.8425176637206691e-02 6.5560863380008741e-04 0.0000000000000000e+00  -1.8230909342931735e-02 4.6919718106900573e-03 0.0000000000000000e+00  6.1971004160188007e-03 4.6055965620451840e-02 0.0000000000000000e+00  1.0044322615929564e-02 4.0515301425994452e-02 0.0000000000000000e+00  -8.1160189891982329e-03 3.4885987859084915e-02 0.0000000000000000e+00  -2.1606306405177477e-02 -1.3829056333311437e-02 0.0000000000000000e+00  -1.1224271335938465e-02 2.3015266631870460e-03 0.0000000000000000e+00  -1.9650072608447547e-02 -1.1039988213979291e-02 0.0000000000000000e+00  4.1171907072949820e-02 -6.0724848695317239e-03 0.0000000000000000e+00  1.3135584369364295e-02 -3.3652147431475279e-02 0.0000000000000000e+00  1.2981483935545941e-02 2.8714509809139491e-02 0.0000000000000000e+00  1.0095592463501047e-02 3.6332503019788333e-02 0.0000000000000000e+00  -3.1478277148767504e-02 1.5599924291594522e-02 0.0000000000000000e+00  -3.6382786791526044e-03 4.6796581710137732e-03 0.0000000000000000e+00  5.9080682286719542e-04 4.8845311261120405e-02 0.0000000000000000e+00  1.7227470161084637e-03 -5.8304744545191693e-03 0.0000000000000000e+00  -1.5284272803767950e-02 3.4305084892985852e-02 0.0000000000000000e+00  -3.2102193848797873e-02 -1.9897467050070259e-02 0.0000000000000000e+00  8.1666850583691185e-03 -4.3544396292998930e-02 0.0000000000000000e+00  -8.7197253150684741e-03 -4.3268702223029074e-02 0.0000000000000000e+00  2.3196851706208055e-02 2.8176334735989770e-02 0.0000000000000000e+00  -8.8418386951450052e-04 2.4079565308207620e-02 0.0000000000000000e+00  9.6835654064970859e-03 -1.4739118663127973e-02 0.0000000000000000e+00  3.3428174666648526e-02 -1.7648512202465681e-02 0.0000000000000000e+00  1.2985892806358557e-02 -3.3339725353749072e-02 0.0000000000000000e+00  -2.5378221982793214e-02 -2.6712711457713745e-02 0.0000000000000000e+00  -2.0390598833626431e-02 1.6407264069921431e-02 0.0000000000000000e+00  -1.3110012469204820e-02 3.2974454879819710e-02 0.0000000000000000e+00  1.4414033271921322e-02 2.5436800424492395e-02 0.0000000000000000e+00  -4.7366970244060676e-02 4.8864087703423568e-03 0.0000000000000000e+00  2.8794614780856126e-02 6.2405495408624874e-03 0.0000000000000000e+00  2.2618773349925066e-02 2.7526618786650851e-02 0.0000000000000000e+00  -8.2228217785327157e-03 4.1636732330076476e-02 0.0000000000000000e+00  -4.5448599548798062e-02 3.5301178500802438e-03 0.0000000000000000e+00  4.8981752950283841e-02 -2.0047601886395900e-03 0.0000000000000000e+00  9.1443719239917391e-03 3.4034982618916548e-02 0.0000000000000000e+00  3.4005102412379015e-02 9.8148708693022880e-03 0.0000000000000000e+00  1.6665128907201527e-02 7.1775406827615960e-03 0.0000000000000000e+00  9.1222393323379912e-03 2.2534154118143999e-02 0.0000000000000000e+00  -3.8567014701478372e-02 1.3219208818124061e-02 0.0000000000000000e+00  -3.0532234822477480e-02 3.4343588628176778e-03 0.0000000000000000e+00  8.5952365627667542e-03 -3.1877172102642480e-02 0.0000000000000000e+00  -2.9887129376029943e-04 4.9327572628948380e-02 0.0000000000000000e+00  -4.9417655646184500e-02 -1.1228810266633198e-03 0.0000000000000000e+00  2.4259353045344985e-03 -4.9105415608790406e-02 0.0000000000000000e+00  -2.8076845444185792e-03 -4.9225728909522475e-02 0.0000000000000000e+00  1.0797279100198491e-03 -1.0096272826759147e-02 0.0000000000000000e+00  1.9623021655398917e-02 3.1398357250257754e-02 0.0000000000000000e+00  -3.2457753013843120e-02 1.3177619517544259e-02 0.0000000000000000e+00  -4.1969102833434309e-02 7.5138574067838909e-03 0.0000000000000000e+00  -1.1952304793338647e-02 3.8151147223233393e-02 0.0000000000000000e+00  -2.1179790561880489e-03 2.6843770899295457e-02 0.0000000000000000e+00  -1.4080898967866620e-03 4.0815864770403699e-02 0.0000000000000000e+00  -3.8883225533762798e-02 -1.0487767306651918e-02 0.0000000000000000e+00  -9.7019132178944294e-03 -3.8883945593586676e-02 0.0000000000000000e+00  1.5593815059177524e-02 -6.4353959800506370e-03 0.0000000000000000e+00  1.1889057745186620e-02 -2.9519985170863124e-02 0.0000000000000000e+00  3.6247440228694756e-02 -1.1680474360822266e-02 0.0000000000000000e+00  1.6881089698683157e-03 -4.4358039961235399e-02 0.0000000000000000e+00  4.6818246425676398e-02 5.4196260573983390e-03 0.0000000000000000e+00  3.9178862635352113e-02 -1.2269792742874930e-02 0.0000000000000000e+00  -4.1106981388427284e-02 -6.7665711868238809e-03 0.0000000000000000e+00  1.9275127670493563e-02 3.2964414031955221e-02 0.0000000000000000e+00  1.1419449045766765e-02 3.6896606737581168e-02 0.0000000000000000e+00  1.2807059429046062e-03 4.6463899982273640e-02 0.0000000000000000e+00  1.2744833267415364e-04 5.0727876529977574e-02 0.0000000000000000e+00  -2.5348028126515390e-03 4.9633064213841789e-02 0.0000000000000000e+00  -1.5306319876762058e-02 3.1484070704943017e-02 0.0000000000000000e+00  -2.9443305825222785e-02 2.2556438037464308e-02 0.0000000000000000e+00  -4.4363544026770028e-02 1.9238670622497283e-03 0.0000000000000000e+00  2.4105386156782718e-02 3.7847979916223263e-03 0.0000000000000000e+00  3.5000758920324