<?xml version="1.0"?>
<VTKFile type="UnstructuredGrid"  version="0.1"  >
<UnstructuredGrid>
<Piece  NumberOfPoints="5315" NumberOfCells="10372">
<Points>
<DataArray  type="Float64"  NumberOfComponents="3"  format="ascii">-1 -1 0  1 -1 0  1 1 0  -1 1 0  0 -1 0  1 0 0  0 1 0  -1 0 0  0 0 0  -1 -0.5 0  -0.5 -1 0  -0.5 1 0  -1 0.5 0  1 -0.5 0  0.5 -1 0  1 0.5 0  0.5 1 0  0.4166666666666666 -0.4166666666666667 0  -0.4166666666666667 0.4166666666666667 0  -0.25 -0.5 0  0.5 0.25 0  -0.4861111111111112 -0.06944444444444445 0  0.0732758620689655 0.507183908045977 0  -0.625 -0.625 0  0.625 0.625 0  0.7380952380952381 -0.25 0  -0.7099116161616161 0.2105429292929293 0  -0.25 0.7380952380952381 0  0.105392156862745 -0.6348039215686275 0  0.6770833333333334 -0.6770833333333333 0  -0.6770833333333334 0.6770833333333334 0  0.3472222222222222 -0.06944444444444446 0  -0.7264957264957265 -0.3044871794871795 0  0.3141940982507127 0.7297313660835709 0  0.02049587951122483 -0.3227479397556124 0  -0.2690972222222223 0.1475694444444444 0  0.3859500089908372 -0.7274430156831472 0  -0.2228477945123298 -0.1761765495248019 0  0.2182539682539683 0.1884920634920635 0  0.75 0.375 0  -0.145442219440968 -0.7602211097204841 0  0.7088913690476191 0.0427827380952381 0  -0.75 -1 0  -1 -0.75 0  1 0.75 0  0.75 1 0  -0.7439982703698937 -0.04614153195464455 0  -0.4609235096577606 -0.3356498099556895 0  0.4063134471431929 0.4895621842856023 0  0.25 -1 0  -0.25 -1 0  -0.75 1 0  0.75 -1 0  -1 -0.25 0  -1 0.25 0  1 -0.25 0  -0.25 1 0  1 -0.75 0  -1 0.75 0  0.25 1 0  1 0.25 0  -0.4041423272138783 -0.7597141090712928 0  0.06500839607911253 0.7578103030529481 0  -0.1572801182352047 0.3838997021864289 0  -0.6528005242053915 0.4409494757946086 0  -0.4930160984848485 0.1544744318181818 0  -0.4732142857142858 0.7752976190476191 0  0.6398809523809523 -0.4538690476190476 0  0.5166054117396399 -0.2161233620965164 0  -0.002273787244753427 0.2232363985975174 0  0.1500564496765022 -0.1524955293952667 0  0.2016720420046758 -0.4410343282803009 0  -0.08495178036419618 0.6274139771124571 0  -0.8367311471133162 0.3642591720794645 0  -0.8333333333333334 -0.625 0  -0.594323836800685 -0.8231079456002283 0  -0.4466957714776065 -0.5349126855671806 0  0.8125 0.5625 0  0.78125 0.78125 0  0.5091392650016769 0.7947130883338923 0  0.125 -0.8382681931833136 0  -0.8184523809523809 -0.8184523809523809 0  -0.07781530426104531 -0.5819319697006881 0  0.5085055196703295 0.04967610411902112 0  0.2918471072074933 -0.276017202318847 0  0.5120763537765269 -0.5898771553229597 0  0.625 -0.8585349462365591 0  0.8158532234335381 -0.8158532234335381 0  -0.5198088446315396 0.5739411553684605 0  -0.8585349462365591 0.625 0  -0.8150493805516597 0.8156205699829586 0  0.8585349462365591 -0.625 0  -0.2688268348649726 0.5439331383603209 0  0.8242100426758139 -0.4436043596336612 0  0.5833756314287952 0.4479378157143976 0  0.8690476190476191 -0.125 0  -0.125 0.8690476190476191 0  -0.8692745600729823 0.125 0  0.8696725120759167 0.125 0  -0.625 0.8711516477451908 0  0.2339522463269718 0.3879558377955778 0  0.2453709502295031 0.5655822922838026 0  0.1730610651637797 0.02021709580868947 0  0.3245402594056757 -0.5644672020485209 0  -0.7291666666666666 -0.4816595441595442 0  -1 -0.375 0  -0.5811140848639904 -0.2127276307675001 0  0.673332592838314 0.2158348143233718 0  0.375 1 0  -0.5714768890989919 0.2985103444040069 0  -1 -0.125 0  -0.8453692574786325 -0.1875 0  -0.3144549134065865 -0.02408675326008025 0  -0.2898414972096258 -0.3336092734780093 0  -0.1075052092206287 -0.4224330421314983 0  -0.05043970703604117 -0.1652278959397459 0  0.6459672950297897 -0.1113415301525317 0  0.4645210271029513 0.6398480556579343 0  0.3512863754411909 0.0937979496253573 0  -0.6063160985568274 0.03891469652249891 0  -0.3428819444444445 0.8690476190476191 0  0.625 1 0  -0.1602164796159982 0.02697860906625157 0  0.04648110064133829 -0.4808416424239687 0  1 0.875 0  -0.3836102479201657 0.6484936449177356 0  -0.3776011723096096 0.263078478984336 0  -0.6024978259969829 -0.3949628096211138 0  0.125 1 0  0.2010781308272777 0.8456221018461906 0  0.2822509696388829 -0.845902544691141 0  -0.3285533674953515 -0.6289773550938936 0  0.3461306793221754 0.278777492464833 0  0.4737475672408696 -0.8508448959534423 0  0.2384632828836344 -0.7029523187242811 0  -0.004777287059791593 0.3759269695907358 0  -0.8499735021850066 -0.3912320205328522 0  0.1222536293721587 0.2963971539625205 0  -0.3769456520999688 -0.203572526805711 0  -0.2749617205755651 -0.8464290792698902 0  0.004805888512766143 -0.747174355248311 0  -0.125 -1 0  -0.06001061822252458 -0.8724007765244854 0  0.875 0.4375 0  0.854421179608893 0.271342359217786 0  0.875 1 0  -0.1499861095763589 0.2358309656934888 0  0.3381943639137225 0.8663061796405532 0  -0.7853090110442228 0.4998412775277108 0  0.7398165998560814 -0.5535192694951373 0  0.1580042122341573 -0.3100246140259917 0  -0.7291666666666667 -0.7142857142857142 0  -0.375 -1 0  0.6483368386154684 0.8514905990110488 0  -0.1295370103291928 -0.2826118305021242 0  0.07458201853700455 0.1123894386563915 0  0.6146465857036327 -0.3161203659316075 0  0.5551898493894731 -0.740296118159085 0  0.375 -1 0  0.482702798370208 -0.084133350091034 0  0.87890625 0.68359375 0  -0.05917195534525846 0.4971092425697621 0  0.1260710309213975 0.6343750312956699 0  0.8690476190476191 -0.3077066815262848 0  -0.2912010232560567 0.3668168386732139 0  -0.875 1 0  -1 0.875 0  1 -0.875 0  0.875 -1 0  -0.8689564281364567 -0.006189266075306407 0  -0.7449425635110547 0.08458938160051771 0  -0.7150266761936593 -0.1739444581417552 0  -0.5260034831318311 -0.711099823962112 0  -0.4724626808827322 -0.871722230709409 0  0.4734436795977052 0.377714794132168 0  -0.875 -1 0  -1 -0.875 0  0.6927189078571988 0.5156567235715964 0  -0.3742497615796874 -0.4296005251260107 0  -0.1969436423297711 -0.6387157229772615 0  -0.6179496409766825 -0.08933356056510935 0  -0.424405057115988 0.04452428810878029 0  -0.08479048335844169 0.1279607007132633 0  0.003830300099055113 0.8712085230656206 0  0.8748778838820267 -1.379218479898026e-05 0  -0.375 1 0  -0.625 1 0  1 0.125 0  -0.125 1 0  1 -0.375 0  1 -0.125 0  1 -0.625 0  0.625 -1 0  0.125 -1 0  -0.625 -1 0  -1 -0.625 0  -1 0.125 0  -1 0.375 0  -1 0.625 0  1 0.375 0  1 0.625 0  0.6325660748712082 0.3335187599557389 0  -0.06420945895056573 0.7549874027425891 0  -0.8769015540914771 0.2478802253893416 0  0.871875 0.871875 0  -0.6868091492840067 0.3270978624973681 0  -0.5363597469565949 0.412994850055505 0  -0.6803734992638302 0.5574295000651103 0  -0.7076253581162534 -0.8803439094224437 0  -0.8778089002295137 -0.5106896447504627 0  -0.3860184984222981 0.530566778071246 0  0.6109900617121508 0.1128453077697081 0  0.3896945134930274 -0.1915382873255086 0  0.7605656944697778 -0.06822134873122943 0  0.3576151269893478 0.5948388411612135 0  -0.5689902680792265 -0.5143596830118065 0  0.6262446286847614 -0.5735657901943212 0  0.2030558252325225 -0.5625263842513452 0  0.6123273142928579 0.7407533260723429 0  0.4016460890123554 -0.3042863223111857 0  -0.59039693199147 0.7578418819188018 0  0.7276932493917544 -0.3705808024528924 0  0.5222536818742854 -0.4713886230400014 0  -0.5101986527137737 0.8848365765607674 0  0.510560172809238 0.5356013299918891 0  -0.3603569195756083 0.75823710606415 0  0.1967279277813232 0.728226870058472 0  -0.6086880986371127 0.1545624071548516 0  -0.38105366729386 0.1511189987807864 0  -0.2944659463671584 -0.7359061804869591 0  0.5060729154966499 -0.3475227845833823 0  -0.09281616240412746 -0.06197858250969457 0  0.7649739583333334 0.6673177083333334 0  0.7628906249999999 0.890234375 0  -0.2666864184909611 0.2585504071132311 0  0.3635064892129658 0.3878003602709461 0  -0.2339409722222222 0.8901937905844155 0  -0.1718792125974916 -0.8957733325456778 0  0.1001768566329531 0.4023510017391879 0  0.3120260172693757 -0.4540546875576884 0  0.7804062804433681 0.1896628610854537 0  0.4087715451998049 0.187961780041608 0  -0.1584963477271457 0.5451611892421655 0  -0.8926817849258324 0.463022006336401 0  0.2338091473445219 -0.07576267331277289 0  0.08171112182813692 -0.2349087687359925 0  0.04635385178956847 -0.1044635073718474 0  -0.4377391632114205 -0.6448874471423088 0  -0.1907678351227189 0.6480215912813945 0  0.300605946475244 0.4741444604171038 0  -0.2145033720757486 -0.06751709909419711 0  0.6069191921170397 -0.005492331448357812 0  0.0214718770761248 0.6032397936031719 0  0.5476675683364878 0.8992752415326501 0  0.4387475014316537 0.9093708953002239 0  -0.4932997685306436 -0.4381009159993523 0  0.2515197695339056 -0.1791673369138964 0  -0.7291666666666667 -0.6088789682539681 0  -0.9166666666666667 -0.6875 0  0.620579540363709 -0.2122431523583302 0  -0.484950136419973 0.6719440339397442 0  0.2857044415400258 0.0137589173127316 0  -0.8945708364098356 -0.288306105327986 0  0.4043102720140535 0.7842914560451557 0  0.04123256238752064 -0.9026968245801402 0  0.2003676884403109 -0.9091888601740487 0  0.1068775558538842 -0.7373377130403223 0  -0.4804566783514427 -0.1763307203045643 0  0.108286342087769 -0.3993789328997278 0  -0.191883080105361 -0.3640821726430649 0  -0.07025064492006244 0.2984876656890053 0  -0.7039324641409584 0.788312126296613 0  -0.7311286585775438 0.8932502354831682 0  0.5171409396884947 0.1503852691889257 0  0.4229392823658633 -0.003216522184234835 0  -0.5621736087218259 -0.919558629836806 0  -0.626474064879544 -0.7266572613636506 0  0.2446828746617422 0.2867616783302419 0  0.1759429608742923 0.4776611759306416 0  -0.3468240303741654 -0.5260416435617549 0  -0.7465808808425306 0.4069574477998361 0  -0.7819962170660292 0.2802441065650652 0  -0.3742623214119594 -0.8547800509641984 0  0.1014498009713561 0.8506721983266377 0  0.4285217620918213 -0.5230190595570253 0  0.4091738370487775 -0.6256346204225141 0  0.78125 0.46875 0  0.90625 0.53125 0  -0.4791801348852565 0.2553992655702126 0  0.7843318610782772 -0.7086046956885941 0  0.8909728264971901 -0.7355183796514634 0  0.7041908166528879 -0.7830649143180282 0  0.731182135
[...]
<PointData  Vectors="f_21"> 
<DataArray  type="Float64"  Name="f_21"  NumberOfComponents="3" format="ascii">-1.7628465492423995e-06 -4.9731275216059903e-06 0.0000000000000000e+00  -1.7628465492423995e-06 -4.9731275216059903e-06 0.0000000000000000e+00  -1.7628465492423995e-06 -4.9731275216059903e-06 0.0000000000000000e+00  -1.7628465492423995e-06 -4.9731275216059903e-06 0.0000000000000000e+00  7.6408112521412628e-07 -7.6402504491585685e-06 0.0000000000000000e+00  8.3277780421706664e-07 -1.2919350418978187e-06 0.0000000000000000e+00  7.6408112521412628e-07 -7.6402504491585685e-06 0.0000000000000000e+00  8.3277780421706664e-07 -1.2919350418978187e-06 0.0000000000000000e+00  -4.5985879992891183e-06 1.0513254846621680e-05 0.0000000000000000e+00  -9.3928746234369850e-02 -2.7962418184966005e-06 0.0000000000000000e+00  -5.5876544983767924e-07 9.3931191915834045e-02 0.0000000000000000e+00  -5.5876544983767924e-07 9.3931191915834045e-02 0.0000000000000000e+00  9.3937356565277783e-02 3.9359371890902497e-07 0.0000000000000000e+00  -9.3928746234369850e-02 -2.7962418184966005e-06 0.0000000000000000e+00  -2.4741254895667770e-06 -9.3926214688252033e-02 0.0000000000000000e+00  9.3937356565277783e-02 3.9359371890902497e-07 0.0000000000000000e+00  -2.4741254895667770e-06 -9.3926214688252033e-02 0.0000000000000000e+00  2.3485509571836267e-02 2.3480972257655514e-02 0.0000000000000000e+00  -2.3489424330945963e-02 -2.3482282848188339e-02 0.0000000000000000e+00  6.6415921406903111e-02 2.8525775647553174e-06 0.0000000000000000e+00  -2.1988909359643598e-07 6.6421113396440717e-02 0.0000000000000000e+00  8.9356670150948867e-04 -9.1620029694665581e-02 0.0000000000000000e+00  -9.1424546152751571e-02 -4.8852239362596821e-04 0.0000000000000000e+00  -3.3207058281274758e-02 3.3208342293688756e-02 0.0000000000000000e+00  3.3205133799577687e-02 -3.3209526632249450e-02 0.0000000000000000e+00  -4.5177209340513051e-02 4.8685966559835571e-02 0.0000000000000000e+00  3.5355131990368688e-02 -5.8577101753790099e-02 0.0000000000000000e+00  -4.8690472693915271e-02 4.5173589268238619e-02 0.0000000000000000e+00  8.0979885102908586e-02 -1.2547617043317680e-02 0.0000000000000000e+00  -4.2124927345223669e-02 -4.2117010073859137e-02 0.0000000000000000e+00  4.2122666282805081e-02 4.2118599258218536e-02 0.0000000000000000e+00  9.3878932701144061e-03 8.1343176988939669e-02 0.0000000000000000e+00  -5.0124267181295729e-02 -4.0999485872119462e-02 0.0000000000000000e+00  -3.8861339308643258e-02 -5.1782840820019854e-02 0.0000000000000000e+00  7.9573764527825691e-02 3.1921308280142046e-03 0.0000000000000000e+00  -2.7869622516635190e-02 -6.2860579345612302e-02 0.0000000000000000e+00  2.4880140015939991e-02 -5.7638181974067539e-02 0.0000000000000000e+00  3.7758315464013301e-02 -5.1485637484137425e-02 0.0000000000000000e+00  -4.0578219412080042e-02 4.9349463477510562e-02 0.0000000000000000e+00  6.1361327042222219e-02 2.5419133137853364e-02 0.0000000000000000e+00  5.7658526787197656e-02 3.0230346550195138e-02 0.0000000000000000e+00  7.6757749243270253e-03 7.3750494675464406e-02 0.0000000000000000e+00  2.2345464091719952e-06 6.6421588904083506e-02 0.0000000000000000e+00  -6.6416935716812286e-02 2.5536880144490898e-06 0.0000000000000000e+00  6.6420878171294370e-02 -2.0034400575002722e-06 0.0000000000000000e+00  -2.9279753208772284e-06 -6.6416244350756798e-02 0.0000000000000000e+00  -9.4091027361151158e-03 -6.6946661416185535e-02 0.0000000000000000e+00  1.0007143940025253e-02 -4.6024810568714984e-02 0.0000000000000000e+00  -2.7234216679833226e-02 2.9382567053660691e-03 0.0000000000000000e+00  1.2081722409473280e-06 -6.6419599293142881e-02 0.0000000000000000e+00  -2.0116734972728323e-06 6.6420938387412920e-02 0.0000000000000000e+00  2.2345464091719952e-06 6.6421588904083506e-02 0.0000000000000000e+00  -2.9279753208772284e-06 -6.6416244350756798e-02 0.0000000000000000e+00  -6.6413782747675537e-02 -2.5899340719900557e-06 0.0000000000000000e+00  6.6417888651477283e-02 1.8221863894690567e-06 0.0000000000000000e+00  -6.6413782747675537e-02 -2.5899340719900557e-06 0.0000000000000000e+00  -2.0116734972728323e-06 6.6420938387412920e-02 0.0000000000000000e+00  -6.6416935716812286e-02 2.5536880144490898e-06 0.0000000000000000e+00  6.6420878171294370e-02 -2.0034400575002722e-06 0.0000000000000000e+00  1.2081722409473280e-06 -6.6419599293142881e-02 0.0000000000000000e+00  6.6417888651477283e-02 1.8221863894690567e-06 0.0000000000000000e+00  1.9083538933478146e-02 6.5336923109670042e-02 0.0000000000000000e+00  -6.3418424081486638e-02 -1.3799967334949674e-02 0.0000000000000000e+00  -7.7257059328074695e-02 -1.5890688722919696e-02 0.0000000000000000e+00  4.2636331576731884e-02 -1.5368345734635932e-02 0.0000000000000000e+00  -9.6399081638134118e-04 -8.3056463912434833e-02 0.0000000000000000e+00  -5.1223754621128829e-03 7.1225367436680689e-02 0.0000000000000000e+00  -3.9541476981186770e-02 1.2272512517863500e-02 0.0000000000000000e+00  -3.0826572166394181e-03 7.2995377738916289e-02 0.0000000000000000e+00  -6.0606672374608220e-02 -5.0904427670033869e-04 0.0000000000000000e+00  3.8576008871626585e-02 3.7855612521343764e-02 0.0000000000000000e+00  7.4404967996439947e-02 1.0244318167373654e-02 0.0000000000000000e+00  -8.3445445721147843e-02 9.6513806038447045e-03 0.0000000000000000e+00  7.4511656109159788e-02 -1.9070592371334801e-02 0.0000000000000000e+00  -7.5149677951330318e-02 1.7969280503032609e-02 0.0000000000000000e+00  -1.4467466640145693e-02 7.6318440806337540e-02 0.0000000000000000e+00  1.5562226697886984e-02 1.0142097995423016e-02 0.0000000000000000e+00  7.6596833630284078e-02 -1.0174261846772125e-02 0.0000000000000000e+00  4.6061148718861911e-02 -4.6064060287495413e-02 0.0000000000000000e+00  1.6260761320591730e-03 -7.5036437153367788e-02 0.0000000000000000e+00  4.2221403078276466e-02 -3.1403838842514499e-02 0.0000000000000000e+00  -4.2686486990753753e-02 4.2686939834954155e-02 0.0000000000000000e+00  8.8132106484412415e-02 5.7842508145415786e-03 0.0000000000000000e+00  3.9630854509847802e-04 9.2759174746676609e-02 0.0000000000000000e+00  4.3568893743848522e-02 4.8233573110215706e-02 0.0000000000000000e+00  -3.4249660370404113e-03 -2.6148044484059788e-02 0.0000000000000000e+00  -1.5455479324938404e-02 -7.8346527444995220e-02 0.0000000000000000e+00  -4.3003593721062022e-02 -4.3000211639238256e-02 0.0000000000000000e+00  5.6887735566696135e-03 2.1580738976633134e-02 0.0000000000000000e+00  7.8350242317033678e-02 1.5453441134637974e-02 0.0000000000000000e+00  4.2978976644665982e-02 4.3145384717056527e-02 0.0000000000000000e+00  -7.8346614147416199e-02 -1.5449571427838931e-02 0.0000000000000000e+00  -6.1787239045437481e-02 9.6569066591039275e-03 0.0000000000000000e+00  -7.8717126962189771e-02 8.6791294731292570e-03 0.0000000000000000e+00  2.3999378205742019e-02 1.4768040705957459e-02 0.0000000000000000e+00  -3.2944164047895470e-02 3.4702835683361119e-02 0.0000000000000000e+00  -3.4705110237662658e-02 3.2948307811789861e-02 0.0000000000000000e+00  3.2956113637037890e-02 -3.4639846986293535e-02 0.0000000000000000e+00  3.2973541004906202e-02 3.4546877552753437e-02 0.0000000000000000e+00  1.4159421277703432e-02 7.9765852561942865e-02 0.0000000000000000e+00  -6.5405126951169665e-02 2.1716120635978615e-02 0.0000000000000000e+00  -6.5950631779116101e-02 -1.3392707989025501e-02 0.0000000000000000e+00  -5.1035546025370009e-03 4.8493007580921094e-02 0.0000000000000000e+00  4.8190039668708162e-02 -1.6095103453669588e-02 0.0000000000000000e+00  -6.1827169027997550e-02 -4.0659786812888253e-03 0.0000000000000000e+00  -8.6775067196567593e-02 -1.4804800096578406e-06 0.0000000000000000e+00  -1.4671458088611481e-02 -7.1345151898907028e-02 0.0000000000000000e+00  3.0521665517910412e-02 6.2571808381166646e-02 0.0000000000000000e+00  1.4128006196489957e-06 -8.6785940920227039e-02 0.0000000000000000e+00  1.6865901122241036e-02 -5.4165504008955236e-02 0.0000000000000000e+00  -3.5942998881385892e-02 -2.8519003626743255e-07 0.0000000000000000e+00  -4.6142397402525744e-02 -3.6468160550204159e-02 0.0000000000000000e+00  3.9064036071969049e-03 -7.8192063492931924e-02 0.0000000000000000e+00  4.9912991531789609e-02 -3.7039626651457359e-02 0.0000000000000000e+00  8.6007013585914921e-02 -7.5161038104150698e-03 0.0000000000000000e+00  4.6005570858769960e-02 -1.2873380757205944e-02 0.0000000000000000e+00  -1.4253001606682809e-02 7.9120325928726420e-02 0.0000000000000000e+00  -9.4521596756781904e-03 -3.9708439662387907e-02 0.0000000000000000e+00  -1.2285305644119547e-02 8.0249620574795663e-02 0.0000000000000000e+00  3.7542700564164133e-03 -8.8076496439044569e-02 0.0000000000000000e+00  -1.7798290345541777e-02 7.5813652256697145e-02 0.0000000000000000e+00  4.6945883488802715e-07 -8.6788950529422287e-02 0.0000000000000000e+00  -6.9716743376771091e-03 -4.5144949290626631e-02 0.0000000000000000e+00  9.2767151954582544e-02 8.2082742689875278e-04 0.0000000000000000e+00  3.5943167036533941e-02 1.7630433098576475e-06 0.0000000000000000e+00  -2.9997611781316488e-02 3.9454589819958259e-02 0.0000000000000000e+00  -2.5916401233781444e-02 -5.8984540757012552e-02 0.0000000000000000e+00  -2.8114282871294218e-02 -2.8867777154311190e-02 0.0000000000000000e+00  3.1006809969458852e-07 -3.5947019558299889e-02 0.0000000000000000e+00  -3.5336308668552405e-02 -4.9072871649886114e-02 0.0000000000000000e+00  2.7629028958170595e-02 -6.4431497471365257e-02 0.0000000000000000e+00  4.4280733370409664e-02 3.1785374834301196e-02 0.0000000000000000e+00  -3.3525522311544993e-02 5.3260267522793447e-02 0.0000000000000000e+00  3.4977279345020586e-03 -8.3517461379161995e-02 0.0000000000000000e+00  5.5269210306491665e-02 -3.8075933797254526e-02 0.0000000000000000e+00  -8.6872716536037245e-02 -5.2964941035152260e-04 0.0000000000000000e+00  -7.8846993857963732e-02 -1.4294327170482924e-02 0.0000000000000000e+00  -6.9870165562879227e-02 2.1011153051144444e-02 0.0000000000000000e+00  2.1130700408915029e-02 -6.9805551912745442e-02 0.0000000000000000e+00  2.8304396115382741e-02 6.3265835027831355e-02 0.0000000000000000e+00  6.6995573344525813e-02 -9.9328075433699047e-04 0.0000000000000000e+00  -1.3301884265196072e-06 3.5942104811662760e-02 0.0000000000000000e+00  3.5999936598354411e-02 1.6212479933220336e-02 0.0000000000000000e+00  8.5105952015653047e-02 7.0158945089600260e-03 0.0000000000000000e+00  6.3450406512158913e-02 2.7298676646621098e-02 0.0000000000000000e+00  3.4818729782523989e-07 -3.5939704698426507e-02 0.0000000000000000e+00  -5.6490649124944795e-02 -3.1462064581512073e-02 0.0000000000000000e+00  -1.8639900800613340e-02 -7.4925355455392834e-02 0.0000000000000000e+00  7.3364300316377098e-02 -2.8719016720248078e-05 0.0000000000000000e+00  -6.3355749199080783e-02 -1.1469803661540259e-02 0.0000000000000000e+00  6.8320826686070438e-02 2.5139655930804954e-02 0.0000000000000000e+00  -4.8418293496265266e-02 4.4033405918757713e-02 0.0000000000000000e+00  2.1505940727642116e-06 8.6780945213017727e-02 0.0000000000000000e+00  1.8981755530164957e-02 -7.4940656893730986e-02 0.0000000000000000e+00  6.6908551627590115e-02 -2.3464016030228862e-02 0.0000000000000000e+00  -3.1589941624436943e-02 2.0461617192102075e-02 0.0000000000000000e+00  -2.7736596701428830e-02 4.7997476290996328e-02 0.0000000000000000e+00  -1.1799926359179055e-02 -6.3395113956121990e-02 0.0000000000000000e+00  1.4128006196489957e-06 -8.6785940920227039e-02 0.0000000000000000e+00  1.3334573771836625e-03 9.0525867174969424e-02 0.0000000000000000e+00  7.3111286883458984e-02 -1.9022556529894701e-02 0.0000000000000000e+00  -9.2313800923559536e-02 -1.6107724088904583e-04 0.0000000000000000e+00  -7.9047298407151564e-02 -1.4844272253399666e-02 0.0000000000000000e+00  -7.0855713391227204e-02 2.1335135748828182e-02 0.0000000000000000e+00  -5.2350143885566254e-02 -3.0243722172599453e-02 0.0000000000000000e+00  2.0593300543440058e-06 3.5938790906838512e-02 0.0000000000000000e+00  3.5943167036533941e-02 1.7630433098576475e-06 0.0000000000000000e+00  -3.5952621342748944e-02 1.7726737507135537e-06 0.0000000000000000e+00  3.4818729782523989e-07 -3.5939704698426507e-02 0.0000000000000000e+00  -1.6690028683788943e-03 -3.7590448811199571e-02 0.0000000000000000e+00  1.7166271147138052e-02 -6.5087402838078026e-02 0.0000000000000000e+00  -3.0521351336525383e-02 -6.2627653068818206e-02 0.0000000000000000e+00  -6.0362637809385847e-03 5.7633431877183339e-02 0.0000000000000000e+00  3.1759712486164474e-03 8.6083331710727046e-02 0.0000000000000000e+00  -7.2573271944899051e-03 3.5084902700610598e-02 0.0000000000000000e+00  2.0593300543440058e-06 3.5938790906838512e-02 0.0000000000000000e+00  -3.5952621342748944e-02 1.7726737507135537e-06 0.0000000000000000e+00  5.3391793168188588e-02 -3.7998504537825224e-03 0.0000000000000000e+00  3.5264967908456520e-02 -1.9013965859910890e-02 0.0000000000000000e+00  6.9363038716794875e-02 2.2994007889666254e-02 0.0000000000000000e+00  -9.4191655886127906e-03 -8.4121725512869908e-02 0.0000000000000000e+00  -3.0795553751074081e-03 -9.0396506848090766e-02 0.0000000000000000e+00  -3.5457482381694078e-02 -2.2748184445374957e-02 0.0000000000000000e+00  -3.6976568259922037e-02 -1.0403460494636779e-03 0.0000000000000000e+00  -3.3347743060308223e-06 3.5980258132478703e-02 0.0000000000000000e+00  2.1505940727642116e-06 8.6780945213017727e-02 0.0000000000000000e+00  -3.2813371094507444e-06 8.6782094496084261e-02 0.0000000000000000e+00  3.5942575367787812e-02 1.8651263587610166e-06 0.0000000000000000e+00  -1.3301884265196072e-06 3.5942104811662760e-02 0.0000000000000000e+00  -8.6775067196567593e-02 -1.4804800096578406e-06 0.0000000000000000e+00  -3.5942998881385892e-02 -2.8519003626743255e-07 0.0000000000000000e+00  -8.6777599330752395e-02 -1.8735435161514123e-06 0.0000000000000000e+00  4.6945883488802715e-07 -8.6788950529422287e-02 0.0000000000000000e+00  3.1006809969458852e-07 -3.5947019558299889e-02 0.0000000000000000e+00  -3.2813371094507444e-06 8.6782094496084261e-02 0.0000000000000000e+00  -8.6777599330752395e-02 -1.8735435161514123e-06 0.0000000000000000e+00  3.5942575367787812e-02 1.8651263587610166e-06 0.0000000000000000e+00  8.6776993262318150e-02 3.7630266089896154e-07 0.0000000000000000e+00  8.6783160212827143e-02 8.0258552005121536e-07 0.0000000000000000e+00  8.6776993262318150e-02 3.7630266089896154e-07 0.0000000000000000e+00  8.6783160212827143e-02 8.0258552005121536e-07 0.0000000000000000e+00  3.2919562021914373e-02 4.2906506433396475e-02 0.0000000000000000e+00  -6.4042791456545831e-02 1.3510867362550799e-02 0.0000000000000000e+00  6.1099542942274702e-02 -2.5213815950682509e-02 0.0000000000000000e+00  3.3853609696442473e-02 -3.3852579322976403e-02 0.0000000000000000e+00  4.4530715339300142e-02 -4.0425683229803597e-02 0.0000000000000000e+00  1.0304786934181050e-02 -2.5190262509264920e-02 0.0000000000000000e+00  4.9605870024521236e-02 1.4222986984330126e-02 0.0000000000000000e+00  -2.0930359322280205e-02 6.9431529123753111e-02 0.0000000000000000e+00  -8.7045813639977807e-02 1.1765231446361536e-03 0.0000000000000000e+00  -3.2771898816310936e-02 8.4329601605333000e-03 0.0000000000000000e+00  1.1138574437018054e-02 8.2785854051374549e-02 0.0000000000000000e+00  1.8051739324144167e-02 7.2826014343822076e-02 0.0000000000000000e+00  -1.4589912374814768e-02 6.2707671257761541e-02 0.0000000000000000e+00  -3.8836810984081205e-02 -2.4856103947867650e-02 0.0000000000000000e+00  -2.0173431316677957e-02 4.1370649340074939e-03 0.0000000000000000e+00  -3.5322642300880863e-02 -1.9843683751526654e-02 0.0000000000000000e+00  7.4008411861506973e-02 -1.0913655424085993e-02 0.0000000000000000e+00  2.3611440480397552e-02 -6.0491502928462948e-02 0.0000000000000000e+00  2.3336046947265703e-02 5.1614026040273799e-02 0.0000000000000000e+00  1.8148132954183421e-02 6.5307806149965772e-02 0.0000000000000000e+00  -5.6583378198031803e-02 2.8041297894782474e-02 0.0000000000000000e+00  -6.5433042985499467e-03 8.4126676057330492e-03 0.0000000000000000e+00  1.0598217352335145e-03 8.7798050270675360e-02 0.0000000000000000e+00  3.0974687616613619e-03 -1.0482143489740381e-02 0.0000000000000000e+00  -2.7474558093721325e-02 6.1663830430493165e-02 0.0000000000000000e+00  -5.7703533324828991e-02 -3.5766975810833393e-02 0.0000000000000000e+00  1.4679722051363807e-02 -7.8268754287494177e-02 0.0000000000000000e+00  -1.5673982136244335e-02 -7.7776333177008633e-02 0.0000000000000000e+00  4.1695955492600079e-02 5.0648505150445312e-02 0.0000000000000000e+00  -1.5889621206166995e-03 4.3282088264078672e-02 0.0000000000000000e+00  1.7406143434289260e-02 -2.6494991938275227e-02 0.0000000000000000e+00  6.0086562599282259e-02 -3.1724087885320891e-02 0.0000000000000000e+00  2.3341962519999350e-02 -5.9930768909475962e-02 0.0000000000000000e+00  -4.5618617482529780e-02 -4.8015820280778040e-02 0.0000000000000000e+00  -3.6651870732141413e-02 2.9493439027787064e-02 0.0000000000000000e+00  -2.3566092555937630e-02 5.9271201115633221e-02 0.0000000000000000e+00  2.5908653031211017e-02 4.5721893830360606e-02 0.0000000000000000e+00  -8.5140815144067988e-02 8.7858626502369981e-03 0.0000000000000000e+00  5.1760621877993969e-02 1.1213100443387350e-02 0.0000000000000000e+00  4.0656256601358888e-02 4.9480161847069687e-02 0.0000000000000000e+00  -1.4777291963524375e-02 7.4844941098945031e-02 0.0000000000000000e+00  -8.1694714405781202e-02 6.3472022162954118e-03 0.0000000000000000e+00  8.8047078020028202e-02 -3.6053723580065753e-03 0.0000000000000000e+00  1.6438396526879014e-02 6.1177043805343979e-02 0.0000000000000000e+00  6.1124651775521427e-02 1.7641726620120951e-02 0.0000000000000000e+00  2.9956395863470601e-02 1.2901357215634183e-02 0.0000000000000000e+00  1.6398188370926020e-02 4.0505536469651278e-02 0.0000000000000000e+00  -6.9325880133885590e-02 2.3763394478697863e-02 0.0000000000000000e+00  -5.4880977381787321e-02 6.1727332070424905e-03 0.0000000000000000e+00  1.5448933116103111e-02 -5.7299018637354926e-02 0.0000000000000000e+00  -5.3980001876562296e-04 8.8667881335832310e-02 0.0000000000000000e+00  -8.8828844533654458e-02 -2.0188175672082352e-03 0.0000000000000000e+00  4.3606640796679990e-03 -8.8268693601719211e-02 0.0000000000000000e+00  -5.0478248714343615e-03 -8.8484137270709237e-02 0.0000000000000000e+00  1.9418336690654463e-03 -1.8149260249791493e-02 0.0000000000000000e+00  3.5273500900680307e-02 5.6439043145087089e-02 0.0000000000000000e+00  -5.8342746974296082e-02 2.3686825641904899e-02 0.0000000000000000e+00  -7.5441707746318157e-02 1.3506500164146265e-02 0.0000000000000000e+00  -2.1485475011581313e-02 6.8576746282700662e-02 0.0000000000000000e+00  -3.8069889236479206e-03 4.8252140556901912e-02 0.0000000000000000e+00  -2.5312834442122022e-03 7.3367740123611969e-02 0.0000000000000000e+00  -6.9893137780825232e-02 -1.8853649376031244e-02 0.0000000000000000e+00  -1.7439923538081895e-02 -6.9895993289872574e-02 0.0000000000000000e+00  2.8028990148892867e-02 -1.1565439629214132e-02 0.0000000000000000e+00  2.1372451251249616e-02 -5.3062419464250304e-02 0.0000000000000000e+00  6.5157091540596332e-02 -2.0994931820025840e-02 0.0000000000000000e+00  3.0363165894258079e-03 -7.9736893121040542e-02 0.0000000000000000e+00  8.4154749647057103e-02 9.7411094101207928e-03 0.0000000000000000e+00  7.0423437749785253e-02 -2.2055235730879832e-02 0.0000000000000000e+00  -7.3890670242527864e-02 -1.2161382584332147e-02 0.0000000000000000e+00  3.4648400757877992e-02 5.9253359542335599e-02 0.0000000000000000e+00  2.0527716595362261e-02 6.6321077196813655e-02 0.0000000000000000e+00  2.3033403687040092e-03 8.3520742641433790e-02 0.0000000000000000e+00  2.3012559395632211e-04 9.1183399355472761e-02 0.0000000000000000e+00  -4.5548607473313105e-03 8.9216209175645628e-02 0.0000000000000000e+00  -2.7511949058162791e-02 5.6594307882497044e-02 0.0000000000000000e+00  -5.2923911604365714e-02 4.0546144300342458e-02 0.0000000000000000e+00  -7.9743463290266353e-02 3.4584228428947610e-03 0.0000000000000000e+00  4.3329455267130466e-02 6.8027700594164289e-03 0.0000000000000000e+00  6.291503383509235