<?xml version="1.0"?>
<VTKFile type="UnstructuredGrid"  version="0.1"  >
<UnstructuredGrid>
<Piece  NumberOfPoints="5315" NumberOfCells="10372">
<Points>
<DataArray  type="Float64"  NumberOfComponents="3"  format="ascii">-1 -1 0  1 -1 0  1 1 0  -1 1 0  0 -1 0  1 0 0  0 1 0  -1 0 0  0 0 0  -1 -0.5 0  -0.5 -1 0  -0.5 1 0  -1 0.5 0  1 -0.5 0  0.5 -1 0  1 0.5 0  0.5 1 0  0.4166666666666666 -0.4166666666666667 0  -0.4166666666666667 0.4166666666666667 0  -0.25 -0.5 0  0.5 0.25 0  -0.4861111111111112 -0.06944444444444445 0  0.0732758620689655 0.507183908045977 0  -0.625 -0.625 0  0.625 0.625 0  0.7380952380952381 -0.25 0  -0.7099116161616161 0.2105429292929293 0  -0.25 0.7380952380952381 0  0.105392156862745 -0.6348039215686275 0  0.6770833333333334 -0.6770833333333333 0  -0.6770833333333334 0.6770833333333334 0  0.3472222222222222 -0.06944444444444446 0  -0.7264957264957265 -0.3044871794871795 0  0.3141940982507127 0.7297313660835709 0  0.02049587951122483 -0.3227479397556124 0  -0.2690972222222223 0.1475694444444444 0  0.3859500089908372 -0.7274430156831472 0  -0.2228477945123298 -0.1761765495248019 0  0.2182539682539683 0.1884920634920635 0  0.75 0.375 0  -0.145442219440968 -0.7602211097204841 0  0.7088913690476191 0.0427827380952381 0  -0.75 -1 0  -1 -0.75 0  1 0.75 0  0.75 1 0  -0.7439982703698937 -0.04614153195464455 0  -0.4609235096577606 -0.3356498099556895 0  0.4063134471431929 0.4895621842856023 0  0.25 -1 0  -0.25 -1 0  -0.75 1 0  0.75 -1 0  -1 -0.25 0  -1 0.25 0  1 -0.25 0  -0.25 1 0  1 -0.75 0  -1 0.75 0  0.25 1 0  1 0.25 0  -0.4041423272138783 -0.7597141090712928 0  0.06500839607911253 0.7578103030529481 0  -0.1572801182352047 0.3838997021864289 0  -0.6528005242053915 0.4409494757946086 0  -0.4930160984848485 0.1544744318181818 0  -0.4732142857142858 0.7752976190476191 0  0.6398809523809523 -0.4538690476190476 0  0.5166054117396399 -0.2161233620965164 0  -0.002273787244753427 0.2232363985975174 0  0.1500564496765022 -0.1524955293952667 0  0.2016720420046758 -0.4410343282803009 0  -0.08495178036419618 0.6274139771124571 0  -0.8367311471133162 0.3642591720794645 0  -0.8333333333333334 -0.625 0  -0.594323836800685 -0.8231079456002283 0  -0.4466957714776065 -0.5349126855671806 0  0.8125 0.5625 0  0.78125 0.78125 0  0.5091392650016769 0.7947130883338923 0  0.125 -0.8382681931833136 0  -0.8184523809523809 -0.8184523809523809 0  -0.07781530426104531 -0.5819319697006881 0  0.5085055196703295 0.04967610411902112 0  0.2918471072074933 -0.276017202318847 0  0.5120763537765269 -0.5898771553229597 0  0.625 -0.8585349462365591 0  0.8158532234335381 -0.8158532234335381 0  -0.5198088446315396 0.5739411553684605 0  -0.8585349462365591 0.625 0  -0.8150493805516597 0.8156205699829586 0  0.8585349462365591 -0.625 0  -0.2688268348649726 0.5439331383603209 0  0.8242100426758139 -0.4436043596336612 0  0.5833756314287952 0.4479378157143976 0  0.8690476190476191 -0.125 0  -0.125 0.8690476190476191 0  -0.8692745600729823 0.125 0  0.8696725120759167 0.125 0  -0.625 0.8711516477451908 0  0.2339522463269718 0.3879558377955778 0  0.2453709502295031 0.5655822922838026 0  0.1730610651637797 0.02021709580868947 0  0.3245402594056757 -0.5644672020485209 0  -0.7291666666666666 -0.4816595441595442 0  -1 -0.375 0  -0.5811140848639904 -0.2127276307675001 0  0.673332592838314 0.2158348143233718 0  0.375 1 0  -0.5714768890989919 0.2985103444040069 0  -1 -0.125 0  -0.8453692574786325 -0.1875 0  -0.3144549134065865 -0.02408675326008025 0  -0.2898414972096258 -0.3336092734780093 0  -0.1075052092206287 -0.4224330421314983 0  -0.05043970703604117 -0.1652278959397459 0  0.6459672950297897 -0.1113415301525317 0  0.4645210271029513 0.6398480556579343 0  0.3512863754411909 0.0937979496253573 0  -0.6063160985568274 0.03891469652249891 0  -0.3428819444444445 0.8690476190476191 0  0.625 1 0  -0.1602164796159982 0.02697860906625157 0  0.04648110064133829 -0.4808416424239687 0  1 0.875 0  -0.3836102479201657 0.6484936449177356 0  -0.3776011723096096 0.263078478984336 0  -0.6024978259969829 -0.3949628096211138 0  0.125 1 0  0.2010781308272777 0.8456221018461906 0  0.2822509696388829 -0.845902544691141 0  -0.3285533674953515 -0.6289773550938936 0  0.3461306793221754 0.278777492464833 0  0.4737475672408696 -0.8508448959534423 0  0.2384632828836344 -0.7029523187242811 0  -0.004777287059791593 0.3759269695907358 0  -0.8499735021850066 -0.3912320205328522 0  0.1222536293721587 0.2963971539625205 0  -0.3769456520999688 -0.203572526805711 0  -0.2749617205755651 -0.8464290792698902 0  0.004805888512766143 -0.747174355248311 0  -0.125 -1 0  -0.06001061822252458 -0.8724007765244854 0  0.875 0.4375 0  0.854421179608893 0.271342359217786 0  0.875 1 0  -0.1499861095763589 0.2358309656934888 0  0.3381943639137225 0.8663061796405532 0  -0.7853090110442228 0.4998412775277108 0  0.7398165998560814 -0.5535192694951373 0  0.1580042122341573 -0.3100246140259917 0  -0.7291666666666667 -0.7142857142857142 0  -0.375 -1 0  0.6483368386154684 0.8514905990110488 0  -0.1295370103291928 -0.2826118305021242 0  0.07458201853700455 0.1123894386563915 0  0.6146465857036327 -0.3161203659316075 0  0.5551898493894731 -0.740296118159085 0  0.375 -1 0  0.482702798370208 -0.084133350091034 0  0.87890625 0.68359375 0  -0.05917195534525846 0.4971092425697621 0  0.1260710309213975 0.6343750312956699 0  0.8690476190476191 -0.3077066815262848 0  -0.2912010232560567 0.3668168386732139 0  -0.875 1 0  -1 0.875 0  1 -0.875 0  0.875 -1 0  -0.8689564281364567 -0.006189266075306407 0  -0.7449425635110547 0.08458938160051771 0  -0.7150266761936593 -0.1739444581417552 0  -0.5260034831318311 -0.711099823962112 0  -0.4724626808827322 -0.871722230709409 0  0.4734436795977052 0.377714794132168 0  -0.875 -1 0  -1 -0.875 0  0.6927189078571988 0.5156567235715964 0  -0.3742497615796874 -0.4296005251260107 0  -0.1969436423297711 -0.6387157229772615 0  -0.6179496409766825 -0.08933356056510935 0  -0.424405057115988 0.04452428810878029 0  -0.08479048335844169 0.1279607007132633 0  0.003830300099055113 0.8712085230656206 0  0.8748778838820267 -1.379218479898026e-05 0  -0.375 1 0  -0.625 1 0  1 0.125 0  -0.125 1 0  1 -0.375 0  1 -0.125 0  1 -0.625 0  0.625 -1 0  0.125 -1 0  -0.625 -1 0  -1 -0.625 0  -1 0.125 0  -1 0.375 0  -1 0.625 0  1 0.375 0  1 0.625 0  0.6325660748712082 0.3335187599557389 0  -0.06420945895056573 0.7549874027425891 0  -0.8769015540914771 0.2478802253893416 0  0.871875 0.871875 0  -0.6868091492840067 0.3270978624973681 0  -0.5363597469565949 0.412994850055505 0  -0.6803734992638302 0.5574295000651103 0  -0.7076253581162534 -0.8803439094224437 0  -0.8778089002295137 -0.5106896447504627 0  -0.3860184984222981 0.530566778071246 0  0.6109900617121508 0.1128453077697081 0  0.3896945134930274 -0.1915382873255086 0  0.7605656944697778 -0.06822134873122943 0  0.3576151269893478 0.5948388411612135 0  -0.5689902680792265 -0.5143596830118065 0  0.6262446286847614 -0.5735657901943212 0  0.2030558252325225 -0.5625263842513452 0  0.6123273142928579 0.7407533260723429 0  0.4016460890123554 -0.3042863223111857 0  -0.59039693199147 0.7578418819188018 0  0.7276932493917544 -0.3705808024528924 0  0.5222536818742854 -0.4713886230400014 0  -0.5101986527137737 0.8848365765607674 0  0.510560172809238 0.5356013299918891 0  -0.3603569195756083 0.75823710606415 0  0.1967279277813232 0.728226870058472 0  -0.6086880986371127 0.1545624071548516 0  -0.38105366729386 0.1511189987807864 0  -0.2944659463671584 -0.7359061804869591 0  0.5060729154966499 -0.3475227845833823 0  -0.09281616240412746 -0.06197858250969457 0  0.7649739583333334 0.6673177083333334 0  0.7628906249999999 0.890234375 0  -0.2666864184909611 0.2585504071132311 0  0.3635064892129658 0.3878003602709461 0  -0.2339409722222222 0.8901937905844155 0  -0.1718792125974916 -0.8957733325456778 0  0.1001768566329531 0.4023510017391879 0  0.3120260172693757 -0.4540546875576884 0  0.7804062804433681 0.1896628610854537 0  0.4087715451998049 0.187961780041608 0  -0.1584963477271457 0.5451611892421655 0  -0.8926817849258324 0.463022006336401 0  0.2338091473445219 -0.07576267331277289 0  0.08171112182813692 -0.2349087687359925 0  0.04635385178956847 -0.1044635073718474 0  -0.4377391632114205 -0.6448874471423088 0  -0.1907678351227189 0.6480215912813945 0  0.300605946475244 0.4741444604171038 0  -0.2145033720757486 -0.06751709909419711 0  0.6069191921170397 -0.005492331448357812 0  0.0214718770761248 0.6032397936031719 0  0.5476675683364878 0.8992752415326501 0  0.4387475014316537 0.9093708953002239 0  -0.4932997685306436 -0.4381009159993523 0  0.2515197695339056 -0.1791673369138964 0  -0.7291666666666667 -0.6088789682539681 0  -0.9166666666666667 -0.6875 0  0.620579540363709 -0.2122431523583302 0  -0.484950136419973 0.6719440339397442 0  0.2857044415400258 0.0137589173127316 0  -0.8945708364098356 -0.288306105327986 0  0.4043102720140535 0.7842914560451557 0  0.04123256238752064 -0.9026968245801402 0  0.2003676884403109 -0.9091888601740487 0  0.1068775558538842 -0.7373377130403223 0  -0.4804566783514427 -0.1763307203045643 0  0.108286342087769 -0.3993789328997278 0  -0.191883080105361 -0.3640821726430649 0  -0.07025064492006244 0.2984876656890053 0  -0.7039324641409584 0.788312126296613 0  -0.7311286585775438 0.8932502354831682 0  0.5171409396884947 0.1503852691889257 0  0.4229392823658633 -0.003216522184234835 0  -0.5621736087218259 -0.919558629836806 0  -0.626474064879544 -0.7266572613636506 0  0.2446828746617422 0.2867616783302419 0  0.1759429608742923 0.4776611759306416 0  -0.3468240303741654 -0.5260416435617549 0  -0.7465808808425306 0.4069574477998361 0  -0.7819962170660292 0.2802441065650652 0  -0.3742623214119594 -0.8547800509641984 0  0.1014498009713561 0.8506721983266377 0  0.4285217620918213 -0.5230190595570253 0  0.4091738370487775 -0.6256346204225141 0  0.78125 0.46875 0  0.90625 0.53125 0  -0.4791801348852565 0.2553992655702126 0  0.7843318610782772 -0.7086046956885941 0  0.8909728264971901 -0.7355183796514634 0  0.7041908166528879 -0.7830649143180282 0  0.731182135
[...]
<PointData  Vectors="f_21"> 
<DataArray  type="Float64"  Name="f_21"  NumberOfComponents="3" format="ascii">-1.3868764048234082e-08 -4.9645213516113186e-08 0.0000000000000000e+00  -1.3868764048234082e-08 -4.9645213516113186e-08 0.0000000000000000e+00  -1.3868764048234082e-08 -4.9645213516113186e-08 0.0000000000000000e+00  -1.3868764048234082e-08 -4.9645213516113186e-08 0.0000000000000000e+00  -3.3140409892997169e-08 -6.7585132478063869e-08 0.0000000000000000e+00  6.8040204840307274e-09 -3.8388755504954316e-08 0.0000000000000000e+00  -3.3140409892997169e-08 -6.7585132478063869e-08 0.0000000000000000e+00  6.8040204840307274e-09 -3.8388755504954316e-08 0.0000000000000000e+00  -2.5991275357809381e-08 -3.6882728082200590e-08 0.0000000000000000e+00  -3.3857215813928353e-03 -3.7471349902393407e-08 0.0000000000000000e+00  -1.7976588077213655e-08 3.3856843439610306e-03 0.0000000000000000e+00  -1.7976588077213655e-08 3.3856843439610306e-03 0.0000000000000000e+00  3.3857250060828972e-03 -3.4663703944680520e-08 0.0000000000000000e+00  -3.3857215813928353e-03 -3.7471349902393407e-08 0.0000000000000000e+00  -1.9207921776412747e-08 -3.3857650602764889e-03 0.0000000000000000e+00  3.3857250060828972e-03 -3.4663703944680520e-08 0.0000000000000000e+00  -1.9207921776412747e-08 -3.3857650602764889e-03 0.0000000000000000e+00  8.4643520195453955e-04 8.4638380220878196e-04 0.0000000000000000e+00  -8.4646549745196918e-04 -8.4645745816444768e-04 0.0000000000000000e+00  2.3940719914774863e-03 -3.0669826089649537e-08 0.0000000000000000e+00  -1.9800910869083294e-09 2.3940272477689260e-03 0.0000000000000000e+00  3.1979204958253176e-05 -3.3023636117286378e-03 0.0000000000000000e+00  -3.2955657642874305e-03 -1.7498266932306270e-05 0.0000000000000000e+00  -1.1970414697129528e-03 1.1969881746810725e-03 0.0000000000000000e+00  1.1970181715610553e-03 -1.1970739289991004e-03 0.0000000000000000e+00  -1.6283767137235676e-03 1.7549309229225889e-03 0.0000000000000000e+00  1.2742225845891492e-03 -2.1115335778731869e-03 0.0000000000000000e+00  -1.7550014583185651e-03 1.6283196496913090e-03 0.0000000000000000e+00  2.9189680581170716e-03 -4.5235372097732847e-04 0.0000000000000000e+00  -1.5182901287999582e-03 -1.5183288780555308e-03 0.0000000000000000e+00  1.5182638725806663e-03 1.5182505954839307e-03 0.0000000000000000e+00  3.3837262762487078e-04 2.9319361493459666e-03 0.0000000000000000e+00  -1.8068094772782130e-03 -1.4778205431351444e-03 0.0000000000000000e+00  -1.4007550122571311e-03 -1.8665301832916301e-03 0.0000000000000000e+00  2.8682513702715470e-03 1.1508793138863061e-04 0.0000000000000000e+00  -1.0044562598576078e-03 -2.2659400919066465e-03 0.0000000000000000e+00  8.9686507325915238e-04 -2.0776977956956178e-03 0.0000000000000000e+00  1.3610822681734953e-03 -1.8557631895505487e-03 0.0000000000000000e+00  -1.4626870056422138e-03 1.7787140585404991e-03 0.0000000000000000e+00  2.2118336729314196e-03 9.1612056376045897e-04 0.0000000000000000e+00  2.0783660786860753e-03 1.0895517208369938e-03 0.0000000000000000e+00  2.7682757398418852e-04 2.6582143818733354e-03 0.0000000000000000e+00  -2.5900387537116143e-08 2.3940409626308115e-03 0.0000000000000000e+00  -2.3940754889024735e-03 -3.1697546297416685e-08 0.0000000000000000e+00  2.3940476791673732e-03 -3.5422643056757866e-08 0.0000000000000000e+00  -2.7417538658161676e-08 -2.3941010121751602e-03 0.0000000000000000e+00  -3.3922169455838250e-04 -2.4132461710779001e-03 0.0000000000000000e+00  3.6054133238307118e-04 -1.6589393057606829e-03 0.0000000000000000e+00  -9.8164937481927590e-04 1.0615619303856329e-04 0.0000000000000000e+00  -1.9013391422124744e-08 -2.3941219095732109e-03 0.0000000000000000e+00  -1.3851851976434585e-08 2.3940240841820162e-03 0.0000000000000000e+00  -2.5900387537116143e-08 2.3940409626308115e-03 0.0000000000000000e+00  -2.7417538658161676e-08 -2.3941010121751602e-03 0.0000000000000000e+00  -2.3940554549757883e-03 -4.0289624206393168e-08 0.0000000000000000e+00  2.3940691554712669e-03 -2.8215632832348468e-08 0.0000000000000000e+00  -2.3940554549757883e-03 -4.0289624206393168e-08 0.0000000000000000e+00  -1.3851851976434585e-08 2.3940240841820162e-03 0.0000000000000000e+00  -2.3940754889024735e-03 -3.1697546297416685e-08 0.0000000000000000e+00  2.3940476791673732e-03 -3.5422643056757866e-08 0.0000000000000000e+00  -1.9013391422124744e-08 -2.3941219095732109e-03 0.0000000000000000e+00  2.3940691554712669e-03 -2.8215632832348468e-08 0.0000000000000000e+00  6.8811098303881769e-04 2.3549770324658411e-03 0.0000000000000000e+00  -2.2861155673698590e-03 -4.9737179594118528e-04 0.0000000000000000e+00  -2.7846793970063830e-03 -5.7280277385330313e-04 0.0000000000000000e+00  1.5367412580782403e-03 -5.5394335730652431e-04 0.0000000000000000e+00  -3.4652441292403938e-05 -2.9940937738411103e-03 0.0000000000000000e+00  -1.8462267159626621e-04 2.5674161348223723e-03 0.0000000000000000e+00  -1.4253070262090130e-03 4.4244377350044549e-04 0.0000000000000000e+00  -1.1087851105551884e-04 2.6311961272839092e-03 0.0000000000000000e+00  -2.1845261371696424e-03 -1.8531569948389010e-05 0.0000000000000000e+00  1.3904554693318304e-03 1.3644587483152648e-03 0.0000000000000000e+00  2.6819368749089307e-03 3.6913889647490139e-04 0.0000000000000000e+00  -3.0077075328337720e-03 3.4789962558554255e-04 0.0000000000000000e+00  2.6858434758188780e-03 -6.8725730947393425e-04 0.0000000000000000e+00  -2.7089324308393740e-03 6.4778644153861906e-04 0.0000000000000000e+00  -5.2159100502888428e-04 2.7508415918191245e-03 0.0000000000000000e+00  5.6092881239503810e-04 3.6539113253981887e-04 0.0000000000000000e+00  2.7610193603326829e-03 -3.6698372620540796e-04 0.0000000000000000e+00  1.6603176338165922e-03 -1.6603715445125931e-03 0.0000000000000000e+00  5.8409407172057805e-05 -2.7046092441922764e-03 0.0000000000000000e+00  1.5218028988803842e-03 -1.1320369260027169e-03 0.0000000000000000e+00  -1.5386865839576167e-03 1.5386490223619307e-03 0.0000000000000000e+00  3.1768274281438872e-03 2.0855011701389039e-04 0.0000000000000000e+00  1.4074407309296850e-05 3.3433364524219191e-03 0.0000000000000000e+00  1.5703898455780344e-03 1.7386243684467052e-03 0.0000000000000000e+00  -1.2335476729942942e-04 -9.4270083724550696e-04 0.0000000000000000e+00  -5.5706851965654086e-04 -2.8241787706189125e-03 0.0000000000000000e+00  -1.5500169056024958e-03 -1.5500371078389385e-03 0.0000000000000000e+00  2.0490980051205467e-04 7.7786742012176248e-04 0.0000000000000000e+00  2.8241261463162102e-03 5.5702081908409480e-04 0.0000000000000000e+00  1.5491591551681149e-03 1.5552084894056315e-03 0.0000000000000000e+00  -2.8241403830947336e-03 -5.5708897029928793e-04 0.0000000000000000e+00  -2.2270064853378256e-03 3.4822391204288223e-04 0.0000000000000000e+00  -2.8372844517943301e-03 3.1300528604260832e-04 0.0000000000000000e+00  8.6500826574184553e-04 5.3243211262390716e-04 0.0000000000000000e+00  -1.1875336864079866e-03 1.2508135538323126e-03 0.0000000000000000e+00  -1.2508595342178332e-03 1.1875143279061089e-03 0.0000000000000000e+00  1.1879363435582230e-03 -1.2488398432249582e-03 0.0000000000000000e+00  1.1885730030298770e-03 1.2451898741702638e-03 0.0000000000000000e+00  5.1025019124324212e-04 2.8751745680937325e-03 0.0000000000000000e+00  -2.3576714596226095e-03 7.8271056187428044e-04 0.0000000000000000e+00  -2.3772774824269826e-03 -4.8266848167105613e-04 0.0000000000000000e+00  -1.8392589750566556e-04 1.7478180324549211e-03 0.0000000000000000e+00  1.7369584046863038e-03 -5.8021806972697546e-04 0.0000000000000000e+00  -2.2286614571494527e-03 -1.4662439863990579e-04 0.0000000000000000e+00  -3.1279889449308956e-03 -3.9740107610684346e-08 0.0000000000000000e+00  -5.2885303914134872e-04 -2.5715919687728669e-03 0.0000000000000000e+00  1.1001801311790558e-03 2.2553666879913592e-03 0.0000000000000000e+00  -1.9831265460670647e-08 -3.1280584546674942e-03 0.0000000000000000e+00  6.0783989853897228e-04 -1.9526264639907298e-03 0.0000000000000000e+00  -1.2956361027415678e-03 -4.1767832365257978e-08 0.0000000000000000e+00  -1.6633674015953028e-03 -1.3144357069905395e-03 0.0000000000000000e+00  1.4089731262326643e-04 -2.8185805003658471e-03 0.0000000000000000e+00  1.7991722020971543e-03 -1.3351376948315316e-03 0.0000000000000000e+00  3.1000795535458077e-03 -2.7074841960484047e-04 0.0000000000000000e+00  1.6585308377530575e-03 -4.6397256406258754e-04 0.0000000000000000e+00  -5.1362226277749934e-04 2.8520346783262348e-03 0.0000000000000000e+00  -3.4083208502192028e-04 -1.4312344384561323e-03 0.0000000000000000e+00  -4.4286487014948606e-04 2.8925375251807849e-03 0.0000000000000000e+00  1.3535909691423707e-04 -3.1747897860044286e-03 0.0000000000000000e+00  -6.4150179803790155e-04 2.7327625029607322e-03 0.0000000000000000e+00  -1.1417903355873605e-09 -3.1280615110298058e-03 0.0000000000000000e+00  -2.5107181708300169e-04 -1.6273146697803745e-03 0.0000000000000000e+00  3.3436265671639709e-03 2.9578706455828295e-05 0.0000000000000000e+00  1.2956224402937799e-03 -2.7049195669570822e-08 0.0000000000000000e+00  -1.0812394039453768e-03 1.4220860674365931e-03 0.0000000000000000e+00  -9.3418863305673807e-04 -2.1262646194702196e-03 0.0000000000000000e+00  -1.0136774154923748e-03 -1.0407056011352814e-03 0.0000000000000000e+00  -2.1701396924056863e-08 -1.2957081074226951e-03 0.0000000000000000e+00  -1.2738312545452560e-03 -1.7688396852265137e-03 0.0000000000000000e+00  9.9582134886364916e-04 -2.3224736549114972e-03 0.0000000000000000e+00  1.5960623277275965e-03 1.1456330330689960e-03 0.0000000000000000e+00  -1.2086548687044152e-03 1.9196696928551588e-03 0.0000000000000000e+00  1.2596020313878516e-04 -3.0105426534025662e-03 0.0000000000000000e+00  1.9921400221962126e-03 -1.3725754569724135e-03 0.0000000000000000e+00  -3.1314008672365923e-03 -1.9352226924102712e-05 0.0000000000000000e+00  -2.8421634017527812e-03 -5.1518650807677807e-04 0.0000000000000000e+00  -2.5185068153844676e-03 7.5719321825433819e-04 0.0000000000000000e+00  7.6186676675664455e-04 -2.5161571227974308e-03 0.0000000000000000e+00  1.0203001645399839e-03 2.2803811196280897e-03 0.0000000000000000e+00  2.4149328403868468e-03 -3.5878404677014606e-05 0.0000000000000000e+00  -2.7142660928341414e-08 1.2956024151755566e-03 0.0000000000000000e+00  1.2977338067122356e-03 5.8417877730682945e-04 0.0000000000000000e+00  3.0678776886521697e-03 2.5273565428320907e-04 0.0000000000000000e+00  2.2871106583796171e-03 9.8390995210774035e-04 0.0000000000000000e+00  -3.1378396158063996e-08 -1.2956699777233788e-03 0.0000000000000000e+00  -2.0361397915893541e-03 -1.1341277826918612e-03 0.0000000000000000e+00  -6.7198926954936721e-04 -2.7006074464167680e-03 0.0000000000000000e+00  2.6443692303148485e-03 -1.0871617297324126e-06 0.0000000000000000e+00  -2.2836097546180233e-03 -4.1328013643293816e-04 0.0000000000000000e+00  2.4624363249738795e-03 9.0617714147788137e-04 0.0000000000000000e+00  -1.7453306448111400e-03 1.5870842701246543e-03 0.0000000000000000e+00  -1.4522779040170570e-08 3.1279633664323663e-03 0.0000000000000000e+00  6.8426548278974089e-04 -2.7014745822791699e-03 0.0000000000000000e+00  2.4118797233345550e-03 -8.4577103800190570e-04 0.0000000000000000e+00  -1.1387566065971650e-03 7.3750964547962105e-04 0.0000000000000000e+00  -9.9962968427508509e-04 1.7301916192465625e-03 0.0000000000000000e+00  -4.2541671572660837e-04 -2.2852318323964699e-03 0.0000000000000000e+00  -1.9831265460670647e-08 -3.1280584546674942e-03 0.0000000000000000e+00  4.8051599511500012e-05 3.2632502372926080e-03 0.0000000000000000e+00  2.6350971211172853e-03 -6.8559889112324078e-04 0.0000000000000000e+00  -3.3272689317429701e-03 -5.7353881917910824e-06 0.0000000000000000e+00  -2.8494069371853030e-03 -5.3522273899288633e-04 0.0000000000000000e+00  -2.5539754128032313e-03 7.6902793524473662e-04 0.0000000000000000e+00  -1.8869096867552841e-03 -1.0901708524757520e-03 0.0000000000000000e+00  9.8561487936327708e-09 1.2956224458673450e-03 0.0000000000000000e+00  1.2956224402937799e-03 -2.7049195669570822e-08 0.0000000000000000e+00  -1.2956909936938567e-03 -5.5136349616512818e-08 0.0000000000000000e+00  -3.1378396158063996e-08 -1.2956699777233788e-03 0.0000000000000000e+00  -6.0347106817365313e-05 -1.3546161312453164e-03 0.0000000000000000e+00  6.1870898574447480e-04 -2.3464579553123211e-03 0.0000000000000000e+00  -1.1001837161353355e-03 -2.2574085982271399e-03 0.0000000000000000e+00  -2.1772311544341100e-04 2.0773536384882190e-03 0.0000000000000000e+00  1.1471199038252933e-04 3.1028085125182222e-03 0.0000000000000000e+00  -2.6157659280841956e-04 1.2644780979512726e-03 0.0000000000000000e+00  9.8561487936327708e-09 1.2956224458673450e-03 0.0000000000000000e+00  -1.2956909936938567e-03 -5.5136349616512818e-08 0.0000000000000000e+00  1.9245466144613410e-03 -1.3692797790482196e-04 0.0000000000000000e+00  1.2712949714771774e-03 -6.8553636263550077e-04 0.0000000000000000e+00  2.5003040645610202e-03 8.2886147001061210e-04 0.0000000000000000e+00  -3.3957524394553868e-04 -3.0324885449553502e-03 0.0000000000000000e+00  -1.1105052570510761e-04 -3.2585854201541671e-03 0.0000000000000000e+00  -1.2779860765661762e-03 -8.2025070502299118e-04 0.0000000000000000e+00  -1.3327539206017807e-03 -3.7478719112453310e-05 0.0000000000000000e+00  -1.1743980307903914e-07 1.2968110233104334e-03 0.0000000000000000e+00  -1.4522779040170570e-08 3.1279633664323663e-03 0.0000000000000000e+00  -2.2180080672275369e-08 3.1279703960795150e-03 0.0000000000000000e+00  1.2956603791923181e-03 -1.8077517109905532e-08 0.0000000000000000e+00  -2.7142660928341414e-08 1.2956024151755566e-03 0.0000000000000000e+00  -3.1279889449308956e-03 -3.9740107610684346e-08 0.0000000000000000e+00  -1.2956361027415678e-03 -4.1767832365257978e-08 0.0000000000000000e+00  -3.1280070676739497e-03 -3.1198941933179101e-08 0.0000000000000000e+00  -1.1417903355873605e-09 -3.1280615110298058e-03 0.0000000000000000e+00  -2.1701396924056863e-08 -1.2957081074226951e-03 0.0000000000000000e+00  -2.2180080672275369e-08 3.1279703960795150e-03 0.0000000000000000e+00  -3.1280070676739497e-03 -3.1198941933179101e-08 0.0000000000000000e+00  1.2956603791923181e-03 -1.8077517109905532e-08 0.0000000000000000e+00  3.1279956004404137e-03 -2.8843313927185127e-08 0.0000000000000000e+00  3.1279936471402866e-03 -2.8952285213893324e-08 0.0000000000000000e+00  3.1279956004404137e-03 -2.8843313927185127e-08 0.0000000000000000e+00  3.1279936471402866e-03 -2.8952285213893324e-08 0.0000000000000000e+00  1.1865321527074952e-03 1.5465449257645138e-03 0.0000000000000000e+00  -2.3085096588836736e-03 4.8705530117217706e-04 0.0000000000000000e+00  2.2024535689427059e-03 -9.0895111857614420e-04 0.0000000000000000e+00  1.2202701666943567e-03 -1.2203317857155469e-03 0.0000000000000000e+00  1.6050437063393989e-03 -1.4571688103487159e-03 0.0000000000000000e+00  3.7155516247506804e-04 -9.0802150034685310e-04 0.0000000000000000e+00  1.7880067421395596e-03 5.1254453765930995e-04 0.0000000000000000e+00  -7.5447874314340895e-04 2.5027380122770956e-03 0.0000000000000000e+00  -3.1375536610553614e-03 4.2528581362893525e-05 0.0000000000000000e+00  -1.1811667138057760e-03 3.0400542867943948e-04 0.0000000000000000e+00  4.0156167832404574e-04 2.9840571274295869e-03 0.0000000000000000e+00  6.5092932211075480e-04 2.6250774324244495e-03 0.0000000000000000e+00  -5.2579988150487623e-04 2.2603292172454661e-03 0.0000000000000000e+00  -1.3999701737872582e-03 -8.9614136549844177e-04 0.0000000000000000e+00  -7.2735085436144008e-04 1.4908483066611663e-04 0.0000000000000000e+00  -1.2731242382918099e-03 -7.1538354791497152e-04 0.0000000000000000e+00  2.6675702222285790e-03 -3.9357057629635166e-04 0.0000000000000000e+00  8.5107388807782410e-04 -2.1803920170221152e-03 0.0000000000000000e+00  8.4103467157838020e-04 1.8604709026578859e-03 0.0000000000000000e+00  6.5405769427610491e-04 2.3540554782844488e-03 0.0000000000000000e+00  -2.0395245630050883e-03 1.0107119729228966e-03 0.0000000000000000e+00  -2.3558931263285420e-04 3.0312658770265317e-04 0.0000000000000000e+00  3.8358964825511945e-05 3.1648620929014227e-03 0.0000000000000000e+00  1.1157971091114591e-04 -3.7773832657123541e-04 0.0000000000000000e+00  -9.9028099497153383e-04 2.2226748227160472e-03 0.0000000000000000e+00  -2.0800175881022878e-03 -1.2892108327690289e-03 0.0000000000000000e+00  5.2914160490449705e-04 -2.8215068577673885e-03 0.0000000000000000e+00  -5.6496478274154491e-04 -2.8035160344730315e-03 0.0000000000000000e+00  1.5030037337230519e-03 1.8255251898622806e-03 0.0000000000000000e+00  -5.7303190152190872e-05 1.5601870787950497e-03 0.0000000000000000e+00  6.2743353933685712e-04 -9.5497705826889229e-04 0.0000000000000000e+00  2.1659288432065433e-03 -1.1435005355319139e-03 0.0000000000000000e+00  8.4139040221615754e-04 -2.1601091913682883e-03 0.0000000000000000e+00  -1.6442806663675735e-03 -1.7308518186264230e-03 0.0000000000000000e+00  -1.3211833785036031e-03 1.0629736036175171e-03 0.0000000000000000e+00  -8.4941440574624004e-04 2.1364901213165111e-03 0.0000000000000000e+00  9.3394283203492663e-04 1.6481166753467564e-03 0.0000000000000000e+00  -3.0691115194568740e-03 3.1645152500030547e-04 0.0000000000000000e+00  1.8655935600339318e-03 4.0448059276639579e-04 0.0000000000000000e+00  1.4655826692681281e-03 1.7834528487138802e-03 0.0000000000000000e+00  -5.3291766978044524e-04 2.6976051773790520e-03 0.0000000000000000e+00  -2.9447267403901810e-03 2.2860675480493135e-04 0.0000000000000000e+00  3.1735729687986935e-03 -1.2984929970875160e-04 0.0000000000000000e+00  5.9243632572635529e-04 2.2052201635515533e-03 0.0000000000000000e+00  2.2032770154443580e-03 6.3591039863619898e-04 0.0000000000000000e+00  1.0797527357070762e-03 4.6502000676152305e-04 0.0000000000000000e+00  5.9101148837907265e-04 1.4600029825046097e-03 0.0000000000000000e+00  -2.4988148346718475e-03 8.5639130044207505e-04 0.0000000000000000e+00  -1.9783139957316805e-03 2.2249882375272183e-04 0.0000000000000000e+00  5.5695731571027895e-04 -2.0654707061710229e-03 0.0000000000000000e+00  -1.9252270157132957e-05 3.1959793277607329e-03 0.0000000000000000e+00  -3.2019051953732021e-03 -7.2782570754243464e-05 0.0000000000000000e+00  1.5716938397498611e-04 -3.1816615312214350e-03 0.0000000000000000e+00  -1.8188798545559006e-04 -3.1894933328846641e-03 0.0000000000000000e+00  6.9914819750137259e-05 -6.5415444590914901e-04 0.0000000000000000e+00  1.2713913520959986e-03 2.0343290748657539e-03 0.0000000000000000e+00  -2.1030462494570357e-03 8.5378351252086288e-04 0.0000000000000000e+00  -2.7192198791779068e-03 4.8679928279386363e-04 0.0000000000000000e+00  -7.7437247141208976e-04 2.4718887707409704e-03 0.0000000000000000e+00  -1.3724385936786525e-04 1.7392354911917637e-03 0.0000000000000000e+00  -9.1221109273055244e-05 2.6444881497933873e-03 0.0000000000000000e+00  -2.5193386056208563e-03 -6.7948686718073735e-04 0.0000000000000000e+00  -6.2859761197817858e-04 -2.5193670456875746e-03 0.0000000000000000e+00  1.0103979630545551e-03 -4.1710792482133708e-04 0.0000000000000000e+00  7.7023825502328495e-04 -1.9127264597498545e-03 0.0000000000000000e+00  2.3484771635983075e-03 -7.5689090194754462e-04 0.0000000000000000e+00  1.0929900699269505e-04 -2.8739913684592490e-03 0.0000000000000000e+00  3.0335428468722908e-03 3.5113624938371772e-04 0.0000000000000000e+00  2.5385441222340417e-03 -7.9502893669819072e-04 0.0000000000000000e+00  -2.6634130453150407e-03 -4.3853639392803142e-04 0.0000000000000000e+00  1.2488252149856728e-03 2.1358408521535673e-03 0.0000000000000000e+00  7.3983512136655265e-04 2.3906363563365295e-03 0.0000000000000000e+00  8.2928762852751823e-05 3.0104175484823559e-03 0.0000000000000000e+00  8.2169213519068107e-06 3.2867699314196026e-03 0.0000000000000000e+00  -1.6431010676059684e-04 3.2158115561939584e-03 0.0000000000000000e+00  -9.9180095016378829e-04 2.0398445627085454e-03 0.0000000000000000e+00  -1.9077421326875068e-03 1.4614144382601810e-03 0.0000000000000000e+00  -2.8744576665174332e-03 1.2459505950986483e-04 0.0000000000000000e+00  1.5618585495187761e-03 2.4520579787219336e-04 0.00000