<?xml version="1.0"?>
<VTKFile type="UnstructuredGrid"  version="0.1"  >
<UnstructuredGrid>
<Piece  NumberOfPoints="5315" NumberOfCells="10372">
<Points>
<DataArray  type="Float64"  NumberOfComponents="3"  format="ascii">-1 -1 0  1 -1 0  1 1 0  -1 1 0  0 -1 0  1 0 0  0 1 0  -1 0 0  0 0 0  -1 -0.5 0  -0.5 -1 0  -0.5 1 0  -1 0.5 0  1 -0.5 0  0.5 -1 0  1 0.5 0  0.5 1 0  0.4166666666666666 -0.4166666666666667 0  -0.4166666666666667 0.4166666666666667 0  -0.25 -0.5 0  0.5 0.25 0  -0.4861111111111112 -0.06944444444444445 0  0.0732758620689655 0.507183908045977 0  -0.625 -0.625 0  0.625 0.625 0  0.7380952380952381 -0.25 0  -0.7099116161616161 0.2105429292929293 0  -0.25 0.7380952380952381 0  0.105392156862745 -0.6348039215686275 0  0.6770833333333334 -0.6770833333333333 0  -0.6770833333333334 0.6770833333333334 0  0.3472222222222222 -0.06944444444444446 0  -0.7264957264957265 -0.3044871794871795 0  0.3141940982507127 0.7297313660835709 0  0.02049587951122483 -0.3227479397556124 0  -0.2690972222222223 0.1475694444444444 0  0.3859500089908372 -0.7274430156831472 0  -0.2228477945123298 -0.1761765495248019 0  0.2182539682539683 0.1884920634920635 0  0.75 0.375 0  -0.145442219440968 -0.7602211097204841 0  0.7088913690476191 0.0427827380952381 0  -0.75 -1 0  -1 -0.75 0  1 0.75 0  0.75 1 0  -0.7439982703698937 -0.04614153195464455 0  -0.4609235096577606 -0.3356498099556895 0  0.4063134471431929 0.4895621842856023 0  0.25 -1 0  -0.25 -1 0  -0.75 1 0  0.75 -1 0  -1 -0.25 0  -1 0.25 0  1 -0.25 0  -0.25 1 0  1 -0.75 0  -1 0.75 0  0.25 1 0  1 0.25 0  -0.4041423272138783 -0.7597141090712928 0  0.06500839607911253 0.7578103030529481 0  -0.1572801182352047 0.3838997021864289 0  -0.6528005242053915 0.4409494757946086 0  -0.4930160984848485 0.1544744318181818 0  -0.4732142857142858 0.7752976190476191 0  0.6398809523809523 -0.4538690476190476 0  0.5166054117396399 -0.2161233620965164 0  -0.002273787244753427 0.2232363985975174 0  0.1500564496765022 -0.1524955293952667 0  0.2016720420046758 -0.4410343282803009 0  -0.08495178036419618 0.6274139771124571 0  -0.8367311471133162 0.3642591720794645 0  -0.8333333333333334 -0.625 0  -0.594323836800685 -0.8231079456002283 0  -0.4466957714776065 -0.5349126855671806 0  0.8125 0.5625 0  0.78125 0.78125 0  0.5091392650016769 0.7947130883338923 0  0.125 -0.8382681931833136 0  -0.8184523809523809 -0.8184523809523809 0  -0.07781530426104531 -0.5819319697006881 0  0.5085055196703295 0.04967610411902112 0  0.2918471072074933 -0.276017202318847 0  0.5120763537765269 -0.5898771553229597 0  0.625 -0.8585349462365591 0  0.8158532234335381 -0.8158532234335381 0  -0.5198088446315396 0.5739411553684605 0  -0.8585349462365591 0.625 0  -0.8150493805516597 0.8156205699829586 0  0.8585349462365591 -0.625 0  -0.2688268348649726 0.5439331383603209 0  0.8242100426758139 -0.4436043596336612 0  0.5833756314287952 0.4479378157143976 0  0.8690476190476191 -0.125 0  -0.125 0.8690476190476191 0  -0.8692745600729823 0.125 0  0.8696725120759167 0.125 0  -0.625 0.8711516477451908 0  0.2339522463269718 0.3879558377955778 0  0.2453709502295031 0.5655822922838026 0  0.1730610651637797 0.02021709580868947 0  0.3245402594056757 -0.5644672020485209 0  -0.7291666666666666 -0.4816595441595442 0  -1 -0.375 0  -0.5811140848639904 -0.2127276307675001 0  0.673332592838314 0.2158348143233718 0  0.375 1 0  -0.5714768890989919 0.2985103444040069 0  -1 -0.125 0  -0.8453692574786325 -0.1875 0  -0.3144549134065865 -0.02408675326008025 0  -0.2898414972096258 -0.3336092734780093 0  -0.1075052092206287 -0.4224330421314983 0  -0.05043970703604117 -0.1652278959397459 0  0.6459672950297897 -0.1113415301525317 0  0.4645210271029513 0.6398480556579343 0  0.3512863754411909 0.0937979496253573 0  -0.6063160985568274 0.03891469652249891 0  -0.3428819444444445 0.8690476190476191 0  0.625 1 0  -0.1602164796159982 0.02697860906625157 0  0.04648110064133829 -0.4808416424239687 0  1 0.875 0  -0.3836102479201657 0.6484936449177356 0  -0.3776011723096096 0.263078478984336 0  -0.6024978259969829 -0.3949628096211138 0  0.125 1 0  0.2010781308272777 0.8456221018461906 0  0.2822509696388829 -0.845902544691141 0  -0.3285533674953515 -0.6289773550938936 0  0.3461306793221754 0.278777492464833 0  0.4737475672408696 -0.8508448959534423 0  0.2384632828836344 -0.7029523187242811 0  -0.004777287059791593 0.3759269695907358 0  -0.8499735021850066 -0.3912320205328522 0  0.1222536293721587 0.2963971539625205 0  -0.3769456520999688 -0.203572526805711 0  -0.2749617205755651 -0.8464290792698902 0  0.004805888512766143 -0.747174355248311 0  -0.125 -1 0  -0.06001061822252458 -0.8724007765244854 0  0.875 0.4375 0  0.854421179608893 0.271342359217786 0  0.875 1 0  -0.1499861095763589 0.2358309656934888 0  0.3381943639137225 0.8663061796405532 0  -0.7853090110442228 0.4998412775277108 0  0.7398165998560814 -0.5535192694951373 0  0.1580042122341573 -0.3100246140259917 0  -0.7291666666666667 -0.7142857142857142 0  -0.375 -1 0  0.6483368386154684 0.8514905990110488 0  -0.1295370103291928 -0.2826118305021242 0  0.07458201853700455 0.1123894386563915 0  0.6146465857036327 -0.3161203659316075 0  0.5551898493894731 -0.740296118159085 0  0.375 -1 0  0.482702798370208 -0.084133350091034 0  0.87890625 0.68359375 0  -0.05917195534525846 0.4971092425697621 0  0.1260710309213975 0.6343750312956699 0  0.8690476190476191 -0.3077066815262848 0  -0.2912010232560567 0.3668168386732139 0  -0.875 1 0  -1 0.875 0  1 -0.875 0  0.875 -1 0  -0.8689564281364567 -0.006189266075306407 0  -0.7449425635110547 0.08458938160051771 0  -0.7150266761936593 -0.1739444581417552 0  -0.5260034831318311 -0.711099823962112 0  -0.4724626808827322 -0.871722230709409 0  0.4734436795977052 0.377714794132168 0  -0.875 -1 0  -1 -0.875 0  0.6927189078571988 0.5156567235715964 0  -0.3742497615796874 -0.4296005251260107 0  -0.1969436423297711 -0.6387157229772615 0  -0.6179496409766825 -0.08933356056510935 0  -0.424405057115988 0.04452428810878029 0  -0.08479048335844169 0.1279607007132633 0  0.003830300099055113 0.8712085230656206 0  0.8748778838820267 -1.379218479898026e-05 0  -0.375 1 0  -0.625 1 0  1 0.125 0  -0.125 1 0  1 -0.375 0  1 -0.125 0  1 -0.625 0  0.625 -1 0  0.125 -1 0  -0.625 -1 0  -1 -0.625 0  -1 0.125 0  -1 0.375 0  -1 0.625 0  1 0.375 0  1 0.625 0  0.6325660748712082 0.3335187599557389 0  -0.06420945895056573 0.7549874027425891 0  -0.8769015540914771 0.2478802253893416 0  0.871875 0.871875 0  -0.6868091492840067 0.3270978624973681 0  -0.5363597469565949 0.412994850055505 0  -0.6803734992638302 0.5574295000651103 0  -0.7076253581162534 -0.8803439094224437 0  -0.8778089002295137 -0.5106896447504627 0  -0.3860184984222981 0.530566778071246 0  0.6109900617121508 0.1128453077697081 0  0.3896945134930274 -0.1915382873255086 0  0.7605656944697778 -0.06822134873122943 0  0.3576151269893478 0.5948388411612135 0  -0.5689902680792265 -0.5143596830118065 0  0.6262446286847614 -0.5735657901943212 0  0.2030558252325225 -0.5625263842513452 0  0.6123273142928579 0.7407533260723429 0  0.4016460890123554 -0.3042863223111857 0  -0.59039693199147 0.7578418819188018 0  0.7276932493917544 -0.3705808024528924 0  0.5222536818742854 -0.4713886230400014 0  -0.5101986527137737 0.8848365765607674 0  0.510560172809238 0.5356013299918891 0  -0.3603569195756083 0.75823710606415 0  0.1967279277813232 0.728226870058472 0  -0.6086880986371127 0.1545624071548516 0  -0.38105366729386 0.1511189987807864 0  -0.2944659463671584 -0.7359061804869591 0  0.5060729154966499 -0.3475227845833823 0  -0.09281616240412746 -0.06197858250969457 0  0.7649739583333334 0.6673177083333334 0  0.7628906249999999 0.890234375 0  -0.2666864184909611 0.2585504071132311 0  0.3635064892129658 0.3878003602709461 0  -0.2339409722222222 0.8901937905844155 0  -0.1718792125974916 -0.8957733325456778 0  0.1001768566329531 0.4023510017391879 0  0.3120260172693757 -0.4540546875576884 0  0.7804062804433681 0.1896628610854537 0  0.4087715451998049 0.187961780041608 0  -0.1584963477271457 0.5451611892421655 0  -0.8926817849258324 0.463022006336401 0  0.2338091473445219 -0.07576267331277289 0  0.08171112182813692 -0.2349087687359925 0  0.04635385178956847 -0.1044635073718474 0  -0.4377391632114205 -0.6448874471423088 0  -0.1907678351227189 0.6480215912813945 0  0.300605946475244 0.4741444604171038 0  -0.2145033720757486 -0.06751709909419711 0  0.6069191921170397 -0.005492331448357812 0  0.0214718770761248 0.6032397936031719 0  0.5476675683364878 0.8992752415326501 0  0.4387475014316537 0.9093708953002239 0  -0.4932997685306436 -0.4381009159993523 0  0.2515197695339056 -0.1791673369138964 0  -0.7291666666666667 -0.6088789682539681 0  -0.9166666666666667 -0.6875 0  0.620579540363709 -0.2122431523583302 0  -0.484950136419973 0.6719440339397442 0  0.2857044415400258 0.0137589173127316 0  -0.8945708364098356 -0.288306105327986 0  0.4043102720140535 0.7842914560451557 0  0.04123256238752064 -0.9026968245801402 0  0.2003676884403109 -0.9091888601740487 0  0.1068775558538842 -0.7373377130403223 0  -0.4804566783514427 -0.1763307203045643 0  0.108286342087769 -0.3993789328997278 0  -0.191883080105361 -0.3640821726430649 0  -0.07025064492006244 0.2984876656890053 0  -0.7039324641409584 0.788312126296613 0  -0.7311286585775438 0.8932502354831682 0  0.5171409396884947 0.1503852691889257 0  0.4229392823658633 -0.003216522184234835 0  -0.5621736087218259 -0.919558629836806 0  -0.626474064879544 -0.7266572613636506 0  0.2446828746617422 0.2867616783302419 0  0.1759429608742923 0.4776611759306416 0  -0.3468240303741654 -0.5260416435617549 0  -0.7465808808425306 0.4069574477998361 0  -0.7819962170660292 0.2802441065650652 0  -0.3742623214119594 -0.8547800509641984 0  0.1014498009713561 0.8506721983266377 0  0.4285217620918213 -0.5230190595570253 0  0.4091738370487775 -0.6256346204225141 0  0.78125 0.46875 0  0.90625 0.53125 0  -0.4791801348852565 0.2553992655702126 0  0.7843318610782772 -0.7086046956885941 0  0.8909728264971901 -0.7355183796514634 0  0.7041908166528879 -0.7830649143180282 0  0.731182135
[...]
<PointData  Vectors="f_21"> 
<DataArray  type="Float64"  Name="f_21"  NumberOfComponents="3" format="ascii">-2.2021798982807483e-08 -7.9803632783657538e-08 0.0000000000000000e+00  -2.2021798982807483e-08 -7.9803632783657538e-08 0.0000000000000000e+00  -2.2021798982807483e-08 -7.9803632783657538e-08 0.0000000000000000e+00  -2.2021798982807483e-08 -7.9803632783657538e-08 0.0000000000000000e+00  -5.4099430879581305e-08 -1.1388429323086447e-07 0.0000000000000000e+00  1.4888734993269696e-08 -4.3354135173354377e-08 0.0000000000000000e+00  -5.4099430879581305e-08 -1.1388429323086447e-07 0.0000000000000000e+00  1.4888734993269696e-08 -4.3354135173354377e-08 0.0000000000000000e+00  -7.1898980671492312e-08 1.3507298662073440e-08 0.0000000000000000e+00  -7.3997274866125741e-03 -4.6761076232287512e-08 0.0000000000000000e+00  -2.6787447982797003e-08 7.3997063737002581e-03 0.0000000000000000e+00  -2.6787447982797003e-08 7.3997063737002581e-03 0.0000000000000000e+00  7.3997755770328017e-03 -2.9801245183026008e-08 0.0000000000000000e+00  -7.3997274866125741e-03 -4.6761076232287512e-08 0.0000000000000000e+00  -3.5921259133086883e-08 -7.3997625127389484e-03 0.0000000000000000e+00  7.3997755770328017e-03 -2.9801245183026008e-08 0.0000000000000000e+00  -3.5921259133086883e-08 -7.3997625127389484e-03 0.0000000000000000e+00  1.8499561734399406e-03 1.8498829343609028e-03 0.0000000000000000e+00  -1.8500258788109601e-03 -1.8499435419515322e-03 0.0000000000000000e+00  5.2324085048389424e-03 -3.9031390227560843e-09 0.0000000000000000e+00  -3.3474853872962617e-09 5.2323804777871241e-03 0.0000000000000000e+00  6.9912954264568898e-05 -7.2175148514108632e-03 0.0000000000000000e+00  -7.2026710978455363e-03 -3.8199928570639229e-05 0.0000000000000000e+00  -2.6162043181704783e-03 2.6161467210635437e-03 0.0000000000000000e+00  2.6161654666149543e-03 -2.6162390908525271e-03 0.0000000000000000e+00  -3.5589386492455933e-03 3.8355681504151648e-03 0.0000000000000000e+00  2.7849203273948445e-03 -4.6148547926011209e-03 0.0000000000000000e+00  -3.8356742053580221e-03 3.5588554319038778e-03 0.0000000000000000e+00  6.3796156236952473e-03 -9.8858979622132651e-04 0.0000000000000000e+00  -3.3183339478729821e-03 -3.3183485326804822e-03 0.0000000000000000e+00  3.3182900576970297e-03 3.3182785935595648e-03 0.0000000000000000e+00  7.3953701769315777e-04 6.4080170260070847e-03 0.0000000000000000e+00  -3.9489042153336412e-03 -3.2298416943829958e-03 0.0000000000000000e+00  -3.0614389869481435e-03 -4.0793799103840964e-03 0.0000000000000000e+00  6.2687673657451093e-03 2.5158422806583391e-04 0.0000000000000000e+00  -2.1953212212990135e-03 -4.9523122903754671e-03 0.0000000000000000e+00  1.9601657384930612e-03 -4.5408923920078666e-03 0.0000000000000000e+00  2.9747331035043963e-03 -4.0558563635401824e-03 0.0000000000000000e+00  -3.1968022750826506e-03 3.8875698820614538e-03 0.0000000000000000e+00  4.8341188866908103e-03 2.0023033730669727e-03 0.0000000000000000e+00  4.5424209308407388e-03 2.3813552444851890e-03 0.0000000000000000e+00  6.0500973073113705e-04 5.8097758589268200e-03 0.0000000000000000e+00  -3.3333530343088612e-08 5.2324011558220335e-03 0.0000000000000000e+00  -5.2324065123986021e-03 -1.6011412770929865e-08 0.0000000000000000e+00  5.2323839105777878e-03 -3.9772934459694144e-08 0.0000000000000000e+00  -5.4471842889153416e-08 -5.2324217496604961e-03 0.0000000000000000e+00  -7.4138874040466211e-04 -5.2742662161589949e-03 0.0000000000000000e+00  7.8800512494475489e-04 -3.6256872555498038e-03 0.0000000000000000e+00  -2.1454586742136691e-03 2.3204059789974169e-04 0.0000000000000000e+00  -2.2913066993701813e-08 -5.2324681211077424e-03 0.0000000000000000e+00  -2.3452070425044527e-08 5.2323726260835660e-03 0.0000000000000000e+00  -3.3333530343088612e-08 5.2324011558220335e-03 0.0000000000000000e+00  -5.4471842889153416e-08 -5.2324217496604961e-03 0.0000000000000000e+00  -5.2323644895114320e-03 -5.1852656397795151e-08 0.0000000000000000e+00  5.2324074934108015e-03 -1.1214317965550152e-08 0.0000000000000000e+00  -5.2323644895114320e-03 -5.1852656397795151e-08 0.0000000000000000e+00  -2.3452070425044527e-08 5.2323726260835660e-03 0.0000000000000000e+00  -5.2324065123986021e-03 -1.6011412770929865e-08 0.0000000000000000e+00  5.2323839105777878e-03 -3.9772934459694144e-08 0.0000000000000000e+00  -2.2913066993701813e-08 -5.2324681211077424e-03 0.0000000000000000e+00  5.2324074934108015e-03 -1.1214317965550152e-08 0.0000000000000000e+00  1.5039014688908376e-03 5.1470266998565467e-03 0.0000000000000000e+00  -4.9964383181193535e-03 -1.0869919026873106e-03 0.0000000000000000e+00  -6.0861163759941862e-03 -1.2518476932289275e-03 0.0000000000000000e+00  3.3586722928293199e-03 -1.2106419565117092e-03 0.0000000000000000e+00  -7.5744632297552070e-05 -6.5437303000123060e-03 0.0000000000000000e+00  -4.0349510236047049e-04 5.6113072683684996e-03 0.0000000000000000e+00  -3.1151046679849825e-03 9.6703197276724212e-04 0.0000000000000000e+00  -2.4235724579727247e-04 5.7507099714017261e-03 0.0000000000000000e+00  -4.7744410207055873e-03 -4.0430532850372289e-05 0.0000000000000000e+00  3.0389400271591165e-03 2.9821813105001382e-03 0.0000000000000000e+00  5.8615663570978777e-03 8.0684511964455613e-04 0.0000000000000000e+00  -6.5735583446944771e-03 7.6041097246795826e-04 0.0000000000000000e+00  5.8701004638906295e-03 -1.5020233979346944e-03 0.0000000000000000e+00  -5.9205434872452228e-03 1.4158163714815296e-03 0.0000000000000000e+00  -1.1399530698401031e-03 6.0122098349495393e-03 0.0000000000000000e+00  1.2259554660773381e-03 7.9865204486391365e-04 0.0000000000000000e+00  6.0344058269177865e-03 -8.0200065922368278e-04 0.0000000000000000e+00  3.6287514264140555e-03 -3.6288170153586188e-03 0.0000000000000000e+00  1.2769000503973322e-04 -5.9110742568189946e-03 0.0000000000000000e+00  3.3260265017271305e-03 -2.4740850296755238e-03 0.0000000000000000e+00  -3.3628939409660968e-03 3.3628686234614350e-03 0.0000000000000000e+00  6.9431788159333213e-03 4.5584877780531507e-04 0.0000000000000000e+00  3.0779503634937565e-05 7.3071678695646588e-03 0.0000000000000000e+00  3.4322038019151077e-03 3.7999371908872745e-03 0.0000000000000000e+00  -2.6960446914392320e-04 -2.0602713320295772e-03 0.0000000000000000e+00  -1.2175040835408649e-03 -6.1723799085494756e-03 0.0000000000000000e+00  -3.3876668164123393e-03 -3.3876642057458933e-03 0.0000000000000000e+00  4.4786783269372952e-04 1.7001298629785127e-03 0.0000000000000000e+00  6.1723408027814161e-03 1.2174492277979780e-03 0.0000000000000000e+00  3.3858129279314615e-03 3.3990569279527226e-03 0.0000000000000000e+00  -6.1723411171742300e-03 -1.2174945961358698e-03 0.0000000000000000e+00  -4.8672848196178444e-03 7.6110402794307469e-04 0.0000000000000000e+00  -6.2010932787150844e-03 6.8412296059966872e-04 0.0000000000000000e+00  1.8905483408385847e-03 1.1637061488864744e-03 0.0000000000000000e+00  -2.5954363775076350e-03 2.7337904898321833e-03 0.0000000000000000e+00  -2.7338388379264094e-03 2.5954603847646901e-03 0.0000000000000000e+00  2.5963159426444123e-03 -2.7293644866984035e-03 0.0000000000000000e+00  2.5977065345153864e-03 2.7214998502379812e-03 0.0000000000000000e+00  1.1152136262152377e-03 6.2839408214766324e-03 0.0000000000000000e+00  -5.1528410867302740e-03 1.7107289970444506e-03 0.0000000000000000e+00  -5.1956929897000069e-03 -1.0548590746227644e-03 0.0000000000000000e+00  -4.0198777283518823e-04 3.8200469125497694e-03 0.0000000000000000e+00  3.7962569844033661e-03 -1.2680482216898548e-03 0.0000000000000000e+00  -4.8708863030503292e-03 -3.2041020456741236e-04 0.0000000000000000e+00  -6.8364254606859331e-03 -4.6884376154296923e-08 0.0000000000000000e+00  -1.1558457908763399e-03 -5.6203592100438713e-03 0.0000000000000000e+00  2.4045206580814520e-03 4.9293157325863129e-03 0.0000000000000000e+00  -2.3845685986397600e-08 -6.8365566214170235e-03 0.0000000000000000e+00  1.3284891742617261e-03 -4.2675394334557590e-03 0.0000000000000000e+00  -2.8317010931318757e-03 -4.6912156052334480e-08 0.0000000000000000e+00  -3.6353946602470984e-03 -2.8727583757992515e-03 0.0000000000000000e+00  3.0793054243774022e-04 -6.1601466540982981e-03 0.0000000000000000e+00  3.9322141772176805e-03 -2.9179853854032077e-03 0.0000000000000000e+00  6.7754518512855222e-03 -5.9170391411105536e-04 0.0000000000000000e+00  3.6248111903865962e-03 -1.0139966671549564e-03 0.0000000000000000e+00  -1.1225728493985149e-03 6.2333595705158541e-03 0.0000000000000000e+00  -7.4489016276222438e-04 -3.1280192492631276e-03 0.0000000000000000e+00  -9.6790983051937265e-04 6.3219068366855685e-03 0.0000000000000000e+00  2.9583182186110958e-04 -6.9386805710617587e-03 0.0000000000000000e+00  -1.4020390151273825e-03 5.9726902368211366e-03 0.0000000000000000e+00  1.2201275130593724e-08 -6.8365783980515590e-03 0.0000000000000000e+00  -5.4875836958960880e-04 -3.5565548993768568e-03 0.0000000000000000e+00  7.3077543858603407e-03 6.4701370287221908e-05 0.0000000000000000e+00  2.8316839944076680e-03 -9.1167989965715004e-09 0.0000000000000000e+00  -2.3631180381126701e-03 3.1081230356925088e-03 0.0000000000000000e+00  -2.0417310079162525e-03 -4.6470403358819853e-03 0.0000000000000000e+00  -2.2154345081392733e-03 -2.2744773175444226e-03 0.0000000000000000e+00  -3.1752071292484703e-08 -2.8318085659668826e-03 0.0000000000000000e+00  -2.7840238964245596e-03 -3.8658705495124069e-03 0.0000000000000000e+00  2.1764562867904098e-03 -5.0758748865349819e-03 0.0000000000000000e+00  3.4883184769831208e-03 2.5039184153753664e-03 0.0000000000000000e+00  -2.6415774760151097e-03 4.1956382621440953e-03 0.0000000000000000e+00  2.7531729371786559e-04 -6.5796904694790407e-03 0.0000000000000000e+00  4.3539765671375920e-03 -2.9997954868288147e-03 0.0000000000000000e+00  -6.8438890729922005e-03 -4.2216557698646694e-05 0.0000000000000000e+00  -6.2117385990920187e-03 -1.1259412947731663e-03 0.0000000000000000e+00  -5.5043707337413383e-03 1.6549695855610500e-03 0.0000000000000000e+00  1.6650924507579357e-03 -5.4991925679360931e-03 0.0000000000000000e+00  2.2299433189038637e-03 4.9839893299647867e-03 0.0000000000000000e+00  5.2780102097306483e-03 -7.8353528236365470e-05 0.0000000000000000e+00  -4.8860102252475549e-08 2.8316775742627193e-03 0.0000000000000000e+00  2.8362901307326595e-03 1.2768372882161554e-03 0.0000000000000000e+00  6.7050494491229674e-03 5.5242964219338051e-04 0.0000000000000000e+00  4.9986420725320309e-03 2.1504559101500373e-03 0.0000000000000000e+00  -5.1239396725393927e-08 -2.8317151008219027e-03 0.0000000000000000e+00  -4.4501341424315506e-03 -2.4786582700049406e-03 0.0000000000000000e+00  -1.4686568848817257e-03 -5.9023250433303861e-03 0.0000000000000000e+00  5.7794701431513832e-03 -2.3304183114679198e-06 0.0000000000000000e+00  -4.9909923663653925e-03 -9.0322260330923077e-04 0.0000000000000000e+00  5.3818490427891231e-03 1.9805676399140696e-03 0.0000000000000000e+00  -3.8145274551524395e-03 3.4687374073697681e-03 0.0000000000000000e+00  -1.0184613162401758e-08 6.8364405793001305e-03 0.0000000000000000e+00  1.4955175975462037e-03 -5.9041955123229507e-03 0.0000000000000000e+00  5.2713197770278032e-03 -1.8484399413817752e-03 0.0000000000000000e+00  -2.4888252375907752e-03 1.6119374349614038e-03 0.0000000000000000e+00  -2.1847756145046307e-03 3.7814936559490858e-03 0.0000000000000000e+00  -9.2976099883133986e-04 -4.9944736093164551e-03 0.0000000000000000e+00  -2.3845685986397600e-08 -6.8365566214170235e-03 0.0000000000000000e+00  1.0501932140925700e-04 7.1320939313570218e-03 0.0000000000000000e+00  5.7592239742857753e-03 -1.4983892987063450e-03 0.0000000000000000e+00  -7.2719947390067936e-03 -1.2488621182057945e-05 0.0000000000000000e+00  -6.2275586215286543e-03 -1.1696974075009489e-03 0.0000000000000000e+00  -5.5818984579863763e-03 1.6808082802666419e-03 0.0000000000000000e+00  -4.1239768060807114e-03 -2.3825940748784732e-03 0.0000000000000000e+00  4.0856437556214848e-08 2.8316960669320917e-03 0.0000000000000000e+00  2.8316839944076680e-03 -9.1167989965715004e-09 0.0000000000000000e+00  -2.8318351716187838e-03 -6.7719146069356103e-08 0.0000000000000000e+00  -5.1239396725393927e-08 -2.8317151008219027e-03 0.0000000000000000e+00  -1.3187695970964117e-04 -2.9606020662837755e-03 0.0000000000000000e+00  1.3522363045734790e-03 -5.1282737917457463e-03 0.0000000000000000e+00  -2.4045283405593368e-03 -4.9336871256318911e-03 0.0000000000000000e+00  -4.7582688093261597e-04 4.5402536850907317e-03 0.0000000000000000e+00  2.5069994206226365e-04 6.7814617913297733e-03 0.0000000000000000e+00  -5.7169127508091306e-04 2.7636739671364641e-03 0.0000000000000000e+00  4.0856437556214848e-08 2.8316960669320917e-03 0.0000000000000000e+00  -2.8318351716187838e-03 -6.7719146069356103e-08 0.0000000000000000e+00  4.2062382515514586e-03 -2.9922286639629583e-04 0.0000000000000000e+00  2.7784916863482921e-03 -1.4982239361627852e-03 0.0000000000000000e+00  5.4645891638007271e-03 1.8115831922964479e-03 0.0000000000000000e+00  -7.4216234842097045e-04 -6.6276470752574673e-03 0.0000000000000000e+00  -2.4270562915299119e-04 -7.1218019030954418e-03 0.0000000000000000e+00  -2.7931380584122591e-03 -1.7926355603220308e-03 0.0000000000000000e+00  -2.9128230072323681e-03 -8.1860417076689990e-05 0.0000000000000000e+00  -2.5915747438244241e-07 2.8343257813740904e-03 0.0000000000000000e+00  -1.0184613162401758e-08 6.8364405793001305e-03 0.0000000000000000e+00  -4.4928607613064159e-08 6.8364544191632281e-03 0.0000000000000000e+00  2.8317470439978461e-03 1.0083108357142293e-08 0.0000000000000000e+00  -4.8860102252475549e-08 2.8316775742627193e-03 0.0000000000000000e+00  -6.8364254606859331e-03 -4.6884376154296923e-08 0.0000000000000000e+00  -2.8317010931318757e-03 -4.6912156052334480e-08 0.0000000000000000e+00  -6.8364662918800213e-03 -3.0413720993558100e-08 0.0000000000000000e+00  1.2201275130593724e-08 -6.8365783980515590e-03 0.0000000000000000e+00  -3.1752071292484703e-08 -2.8318085659668826e-03 0.0000000000000000e+00  -4.4928607613064159e-08 6.8364544191632281e-03 0.0000000000000000e+00  -6.8364662918800213e-03 -3.0413720993558100e-08 0.0000000000000000e+00  2.8317470439978461e-03 1.0083108357142293e-08 0.0000000000000000e+00  6.8364510634424148e-03 -1.7665255229703733e-08 0.0000000000000000e+00  6.8364743879613579e-03 -1.6530403102032675e-08 0.0000000000000000e+00  6.8364510634424148e-03 -1.7665255229703733e-08 0.0000000000000000e+00  6.8364743879613579e-03 -1.6530403102032675e-08 0.0000000000000000e+00  2.5932594679920328e-03 3.3801345814968033e-03 0.0000000000000000e+00  -5.0453929891032387e-03 1.0645420476536830e-03 0.0000000000000000e+00  4.8136097517219607e-03 -1.9865257156332708e-03 0.0000000000000000e+00  2.6669994873878425e-03 -2.6670684292279421e-03 0.0000000000000000e+00  3.5079475915956258e-03 -3.1847029411983495e-03 0.0000000000000000e+00  8.1205423326305643e-04 -1.9844985929729311e-03 0.0000000000000000e+00  3.9078289916162495e-03 1.1202561377024974e-03 0.0000000000000000e+00  -1.6489514056378649e-03 5.4699470693033063e-03 0.0000000000000000e+00  -6.8573455964677042e-03 9.2978340404669936e-05 0.0000000000000000e+00  -2.5815256209509706e-03 6.6446856466969054e-04 0.0000000000000000e+00  8.7763394731878706e-04 6.5219148689039958e-03 0.0000000000000000e+00  1.4226264442598082e-03 5.7373407801956117e-03 0.0000000000000000e+00  -1.1491847674844171e-03 4.9401533958805246e-03 0.0000000000000000e+00  -3.0597162516178781e-03 -1.9585081798290239e-03 0.0000000000000000e+00  -1.5896542137105853e-03 3.2588271553667727e-04 0.0000000000000000e+00  -2.7825065993295965e-03 -1.5634629474785139e-03 0.0000000000000000e+00  5.8301767931519003e-03 -8.6010424471093640e-04 0.0000000000000000e+00  1.8600949177007664e-03 -4.7653568305379848e-03 0.0000000000000000e+00  1.8381521891854158e-03 4.0662401603966791e-03 0.0000000000000000e+00  1.4295109716063554e-03 5.1449960928670151e-03 0.0000000000000000e+00  -4.4575284733897134e-03 2.2090323915442450e-03 0.0000000000000000e+00  -5.1491996120613050e-04 6.6256506580907493e-04 0.0000000000000000e+00  8.3833919587513486e-05 6.9170593973897423e-03 0.0000000000000000e+00  2.4388020112295491e-04 -8.2553227757140328e-04 0.0000000000000000e+00  -2.1643218615907504e-03 4.8578621685548620e-03 0.0000000000000000e+00  -4.5460068084452222e-03 -2.8176089620744892e-03 0.0000000000000000e+00  1.1564756429636711e-03 -6.1665326646731427e-03 0.0000000000000000e+00  -1.2347714247918108e-03 -6.1272313712288223e-03 0.0000000000000000e+00  3.2849240238299530e-03 3.9898749762019084e-03 0.0000000000000000e+00  -1.2523702127151696e-04 3.4099424736305718e-03 0.0000000000000000e+00  1.3712963727984116e-03 -2.0871214540915269e-03 0.0000000000000000e+00  4.7337929200232162e-03 -2.4991567013751769e-03 0.0000000000000000e+00  1.8389294126450683e-03 -4.7210376581123736e-03 0.0000000000000000e+00  -3.5936952557864233e-03 -3.7828393802693712e-03 0.0000000000000000e+00  -2.8875296840768891e-03 2.3232694404093177e-03 0.0000000000000000e+00  -1.8564457409231728e-03 4.6694967146658365e-03 0.0000000000000000e+00  2.0412041095733023e-03 3.6021217753818813e-03 0.0000000000000000e+00  -6.7077374727162751e-03 6.9170476833007688e-04 0.0000000000000000e+00  4.0774022389910743e-03 8.8404503402655747e-04 0.0000000000000000e+00  3.2031237456531976e-03 3.8979144837394610e-03 0.0000000000000000e+00  -1.1647031053787231e-03 5.8958790504507110e-03 0.0000000000000000e+00  -6.4358987542268882e-03 4.9970533964061102e-04 0.0000000000000000e+00  6.9360855480726773e-03 -2.8376475059983233e-04 0.0000000000000000e+00  1.2948184668988402e-03 4.8197117164222852e-03 0.0000000000000000e+00  4.8154149570641229e-03 1.3898806716021151e-03 0.0000000000000000e+00  2.3598776820696350e-03 1.0163896385840614e-03 0.0000000000000000e+00  1.2917106870765076e-03 3.1909890880703704e-03 0.0000000000000000e+00  -5.4613319401282138e-03 1.8717710939368285e-03 0.0000000000000000e+00  -4.3237275984943585e-03 4.8634078769033373e-04 0.0000000000000000e+00  1.2172585289975445e-03 -4.5141711786163890e-03 0.0000000000000000e+00  -4.2099105777407996e-05 6.9850952143835484e-03 0.0000000000000000e+00  -6.9979768726576809e-03 -1.5901600730483688e-04 0.0000000000000000e+00  3.4351902878585204e-04 -6.9536976970368588e-03 0.0000000000000000e+00  -3.9752219201960039e-04 -6.9708062203597213e-03 0.0000000000000000e+00  1.5281353831004708e-04 -1.4296596902301500e-03 0.0000000000000000e+00  2.7787193900295714e-03 4.4462274344835885e-03 0.0000000000000000e+00  -4.5963440279873742e-03 1.8660472449571980e-03 0.0000000000000000e+00  -5.9430491047239515e-03 1.0639796504246046e-03 0.0000000000000000e+00  -1.6924550185734957e-03 5.4025338088169901e-03 0.0000000000000000e+00  -2.9994339771215699e-04 3.8012695598541929e-03 0.0000000000000000e+00  -1.9937375343884897e-04 5.7797770399186576e-03 0.0000000000000000e+00  -5.5061918665139549e-03 -1.4850354330359233e-03 0.0000000000000000e+00  -1.3738351765842825e-03 -5.5062078134434792e-03 0.0000000000000000e+00  2.2082996815363676e-03 -9.1154253065281823e-04 0.0000000000000000e+00  1.6834353909596243e-03 -4.1803374631467520e-03 0.0000000000000000e+00  5.1327845433151815e-03 -1.6541723683766978e-03 0.0000000000000000e+00  2.3889305660294204e-04 -6.2812807152989739e-03 0.0000000000000000e+00  6.6300085981212988e-03 7.6748601560642149e-04 0.0000000000000000e+00  5.5481579131379070e-03 -1.7375367788479853e-03 0.0000000000000000e+00  -5.8210747577457124e-03 -9.5838233644051458e-04 0.0000000000000000e+00  2.7294169162537249e-03 4.6680692204479563e-03 0.0000000000000000e+00  1.6169842428690531e-03 5.2249390900686180e-03 0.0000000000000000e+00  1.8125569303121533e-04 6.5795419332449522e-03 0.0000000000000000e+00  1.7964420147076892e-05 7.1835167305037920e-03 0.0000000000000000e+00  -3.5908686247544767e-04 7.0284286709557447e-03 0.0000000000000000e+00  -2.1676302937394354e-03 4.4582784230370563e-03 0.0000000000000000e+00  -4.1694948795375766e-03 3.1940871674946639e-03 0.0000000000000000e+00  -6.2823159938876962e-03 2.7237225581714340e-04 0.0000000000000000e+00  3.4135530292278829e-03 5.3596302061852412e-04 0.0000000000