<?xml version="1.0"?>
<VTKFile type="UnstructuredGrid"  version="0.1"  >
<UnstructuredGrid>
<Piece  NumberOfPoints="139" NumberOfCells="238">
<Points>
<DataArray  type="Float64"  NumberOfComponents="3"  format="ascii">-1 -1 0  1 -1 0  1 1 0  -1 1 0  0 -1 0  1 0 0  0 1 0  -1 0 0  0 0 0  -1 -0.5 0  -0.5 -1 0  -0.5 1 0  -1 0.5 0  1 -0.5 0  0.5 -1 0  1 0.5 0  0.5 1 0  0.4166666666666666 -0.4166666666666667 0  -0.4166666666666667 0.4166666666666667 0  -0.25 -0.5 0  0.5 0.25 0  -0.4861111111111112 -0.06944444444444445 0  0.0732758620689655 0.507183908045977 0  -0.625 -0.625 0  0.625 0.625 0  0.7380952380952381 -0.25 0  -0.7099116161616161 0.2105429292929293 0  -0.25 0.7380952380952381 0  0.105392156862745 -0.6348039215686275 0  0.6770833333333334 -0.6770833333333333 0  -0.6770833333333334 0.6770833333333334 0  0.3472222222222222 -0.06944444444444446 0  -0.7264957264957265 -0.3044871794871795 0  0.3141940982507127 0.7297313660835709 0  0.02049587951122483 -0.3227479397556124 0  -0.2690972222222223 0.1475694444444444 0  0.3859500089908372 -0.7274430156831472 0  -0.2228477945123298 -0.1761765495248019 0  0.2182539682539683 0.1884920634920635 0  0.75 0.375 0  -0.145442219440968 -0.7602211097204841 0  0.7088913690476191 0.0427827380952381 0  -0.75 -1 0  -1 -0.75 0  1 0.75 0  0.75 1 0  -0.7439982703698937 -0.04614153195464455 0  -0.4609235096577606 -0.3356498099556895 0  0.4063134471431929 0.4895621842856023 0  0.25 -1 0  -0.25 -1 0  -0.75 1 0  0.75 -1 0  -1 -0.25 0  -1 0.25 0  1 -0.25 0  -0.25 1 0  1 -0.75 0  -1 0.75 0  0.25 1 0  1 0.25 0  -0.4041423272138783 -0.7597141090712928 0  0.06500839607911253 0.7578103030529481 0  -0.1572801182352047 0.3838997021864289 0  -0.6528005242053915 0.4409494757946086 0  -0.4930160984848485 0.1544744318181818 0  -0.4732142857142858 0.7752976190476191 0  0.6398809523809523 -0.4538690476190476 0  0.5166054117396399 -0.2161233620965164 0  -0.002273787244753427 0.2232363985975174 0  0.1500564496765022 -0.1524955293952667 0  0.2016720420046758 -0.4410343282803009 0  -0.08495178036419618 0.6274139771124571 0  -0.8367311471133162 0.3642591720794645 0  -0.8333333333333334 -0.625 0  -0.594323836800685 -0.8231079456002283 0  -0.4466957714776065 -0.5349126855671806 0  0.8125 0.5625 0  0.78125 0.78125 0  0.5091392650016769 0.7947130883338923 0  0.125 -0.8382681931833136 0  -0.8184523809523809 -0.8184523809523809 0  -0.07781530426104531 -0.5819319697006881 0  0.5085055196703295 0.04967610411902112 0  0.2918471072074933 -0.276017202318847 0  0.5120763537765269 -0.5898771553229597 0  0.625 -0.8585349462365591 0  0.8158532234335381 -0.8158532234335381 0  -0.5198088446315396 0.5739411553684605 0  -0.8585349462365591 0.625 0  -0.8150493805516597 0.8156205699829586 0  0.8585349462365591 -0.625 0  -0.2688268348649726 0.5439331383603209 0  0.8242100426758139 -0.4436043596336612 0  0.5833756314287952 0.4479378157143976 0  0.8690476190476191 -0.125 0  -0.125 0.8690476190476191 0  -0.8692745600729823 0.125 0  0.8696725120759167 0.125 0  -0.625 0.8711516477451908 0  0.2339522463269718 0.3879558377955778 0  0.2453709502295031 0.5655822922838026 0  0.1730610651637797 0.02021709580868947 0  0.3245402594056757 -0.5644672020485209 0  -0.7291666666666666 -0.4816595441595442 0  -1 -0.375 0  -0.5811140848639904 -0.2127276307675001 0  0.673332592838314 0.2158348143233718 0  0.375 1 0  -0.5714768890989919 0.2985103444040069 0  -1 -0.125 0  -0.8453692574786325 -0.1875 0  -0.3144549134065865 -0.02408675326008025 0  -0.2898414972096258 -0.3336092734780093 0  -0.1075052092206287 -0.4224330421314983 0  -0.05043970703604117 -0.1652278959397459 0  0.6043414195459926 -0.08042657175542725 0  0.4645210271029513 0.6398480556579343 0  0.3512863754411909 0.0937979496253573 0  -0.6063160985568274 0.03891469652249891 0  -0.3428819444444445 0.8690476190476191 0  0.625 1 0  -0.1602164796159982 0.02697860906625157 0  0.04648110064133829 -0.4808416424239687 0  1 0.875 0  -0.3836102479201657 0.6484936449177356 0  -0.3776011723096096 0.263078478984336 0  -0.6024978259969829 -0.3949628096211138 0  0.125 1 0  0.2010781308272777 0.8456221018461906 0  0.2822509696388829 -0.845902544691141 0  -0.3285533674953515 -0.6289773550938936 0  0.3780987294046764 0.3404278586230161 0  0.4737475672408696 -0.8508448959534423 0  0.2384632828836344 -0.7029523187242811 0  0.08310195233738833 0.3525450222325449 0  -0.8499735021850066 -0.3912320205328522 0  -0.3769456520999688 -0.203572526805711 0  -0.2749617205755651 -0.8464290792698902 0  </DataArray>
</Points>
<Cells>
<DataArray  type="UInt32"  Name="connectivity"  format="ascii">13 57 91  34 114 115  23 74 104  47 76 127  23 75 81  47 106 137  61 76 131  12 73 89  30 66 99  29 86 87  80 130 134  61 131 138  48 101 117  33 79 117  20 118 132  39 98 107  31 83 116  48 100 101  37 115 122  27 72 92  34 70 84  28 40 82  31 68 116  41 83 116  18 109 126  35 112 122  22 100 135  23 74 81  29 85 133  30 66 88  28 82 123  29 67 85  22 100 101  34 71 84  33 101 117  47 76 113  19 76 113  35 63 69  35 65 126  49 80 130  37 112 122  37 113 137  31 70 84  41 83 107  5 55 95  10 61 138  15 39 60  20 83 107  43 74 81  42 75 81  9 43 74  24 77 78  15 39 77  15 44 77  44 77 78  26 65 109  7 54 97  47 113 137  21 106 137  38 100 132  48 100 132  28 80 134  4 49 80  4 40 50  40 131 138  30 89 90  30 90 99  29 87 91  14 52 86  53 110 111  26 73 97  54 73 97  25 55 95  13 91 93  27 92 125  6 62 96  57 87 91  52 86 87  58 89 90  51 90 99  59 128 129  33 62 129  39 60 98  5 60 98  23 76 127  10 42 75  27 72 96  22 62 72  62 72 96  18 63 92  26 64 73  26 64 109  26 65 119  21 65 119  11 56 120  11 66 120  25 67 93  17 71 84  17 67 68  25 67 68  8 115 122  38 118 132  31 70 102  8 70 102  28 71 103  17 71 103  63 72 92  22 63 72  12 58 89  12 54 73  9 105 136  9 74 136  10 61 75  23 61 75  23 61 76  19 76 131  24 78 79  24 79 117  2 45 124  16 79 121  28 40 80  4 40 80  0 43 81  0 42 81  34 114 123  19 82 114  20 83 118  31 83 118  17 68 84  31 68 84  17 67 85  36 130 134  29 86 133  14 86 133  1 52 87  1 57 87  30 64 88  18 64 88  64 73 89  30 64 89  3 51 90  3 58 90  29 67 93  29 91 93  18 88 125  18 92 125  13 55 93  25 55 93  39 77 94  24 77 94  41 98 107  25 68 116  6 56 96  27 120 125  7 46 97  26 46 97  41 95 98  5 95 98  11 66 99  11 51 99  38 69 135  38 100 135  33 62 101  22 62 101  38 69 102  8 69 102  36 85 103  17 85 103  23 104 127  32 104 127  32 111 136  53 105 136  26 46 119  32 46 106  39 94 107  20 94 107  33 79 108  16 79 108  65 109 126  18 64 109  7 46 111  7 110 111  53 111 136  32 46 111  35 65 112  21 65 112  82 114 123  37 114 115  37 113 114  19 113 114  34 70 115  8 70 115  25 95 116  41 95 116  48 94 117  24 94 117  38 102 118  31 102 118  46 106 119  21 106 119  27 96 120  56 96 120  78 79 121  45 78 121  8 69 122  35 69 122  28 71 123  34 71 123  45 78 124  44 78 124  66 120 125  66 88 125  35 63 126  18 63 126  47 106 127  32 106 127  6 62 128  62 128 129  33 108 129  59 108 129  14 49 130  36 85 133  40 82 131  19 82 131  20 94 132  48 94 132  36 130 133  14 130 133  36 103 134  28 103 134  22 63 135  63 69 135  74 104 136  32 104 136  37 112 137  21 112 137  10 50 138  40 50 138  </DataArray>
<DataArray  type="UInt32"  Name="offsets"  format="ascii">3 6 9 12 15 18 21 24 27 30 33 36 39 42 45 48 51 54 57 60 63 66 69 72 75 78 81 84 87 90 93 96 99 102 105 108 111 114 117 120 123 126 129 132 135 138 141 144 147 150 153 156 159 162 165 168 171 174 177 180 183 186 189 192 195 198 201 204 207 210 213 216 219 222 225 228 231 234 237 240 243 246 249 252 255 258 261 264 267 270 273 276 279 282 285 288 291 294 297 300 303 306 309 312 315 318 321 324 327 330 333 336 339 342 345 348 351 354 357 360 363 366 369 372 375 378 381 384 387 390 393 396 399 402 405 408 411 414 417 420 423 426 429 432 435 438 441 444 447 450 453 456 459 462 465 468 471 474 477 480 483 486 489 492 495 498 501 504 507 510 513 516 519 522 525 528 531 534 537 540 543 546 549 552 555 558 561 564 567 570 573 576 579 582 585 588 591 594 597 600 603 606 609 612 615 618 621 624 627 630 633 636 639 642 645 648 651 654 657 660 663 666 669 672 675 678 681 684 687 690 693 696 699 702 705 708 711 714 </DataArray>
<DataArray  type="UInt8"  Name="types"  format="ascii">5 5 5 5 5 5 5 5 5 5 5 5 5 5 5 5 5 5 5 5 5 5 5 5 5 5 5 5 5 5 5 5 5 5 5 5 5 5 5 5 5 5 5 5 5 5 5 5 5 5 5 5 5 5 5 5 5 5 5 5 5 5 5 5 5 5 5 5 5 5 5 5 5 5 5 5 5 5 5 5 5 5 5 5 5 5 5 5 5 5 5 5 5 5 5 5 5 5 5 5 5 5 5 5 5 5 5 5 5 5 5 5 5 5 5 5 5 5 5 5 5 5 5 5 5 5 5 5 5 5 5 5 5 5 5 5 5 5 5 5 5 5 5 5 5 5 5 5 5 5 5 5 5 5 5 5 5 5 5 5 5 5 5 5 5 5 5 5 5 5 5 5 5 5 5 5 5 5 5 5 5 5 5 5 5 5 5 5 5 5 5 5 5 5 5 5 5 5 5 5 5 5 5 5 5 5 5 5 5 5 5 5 5 5 5 5 5 5 5 5 5 5 5 5 5 5 5 5 5 5 5 5 5 5 5 5 5 5 </DataArray>
</Cells>
<PointData  Vectors="f_21"> 
<DataArray  type="Float64"  Name="f_21"  NumberOfComponents="3" format="ascii">5.0304154427837928e-04 -4.7341428141895268e-03 0.0000000000000000e+00  5.0304154427837928e-04 -4.7341428141895268e-03 0.0000000000000000e+00  5.0304154427837928e-04 -4.7341428141895268e-03 0.0000000000000000e+00  5.0304154427837928e-04 -4.7341428141895268e-03 0.0000000000000000e+00  5.0677044324501722e-04 -4.8145843526369208e-03 0.0000000000000000e+00  5.4764494599446225e-04 -4.7256313377589893e-03 0.0000000000000000e+00  5.0677044324501722e-04 -4.8145843526369208e-03 0.0000000000000000e+00  5.4764494599446225e-04 -4.7256313377589893e-03 0.0000000000000000e+00  5.4070775410475452e-04 -4.8217357896066246e-03 0.0000000000000000e+00  6.2590256960339539e-04 -4.7210006613287022e-03 0.0000000000000000e+00  4.9913824342199024e-04 -4.8434260409086962e-03 0.0000000000000000e+00  4.9913824342199024e-04 -4.8434260409086962e-03 0.0000000000000000e+00  4.1510038076768947e-04 -4.7284629569955480e-03 0.0000000000000000e+00  6.2590256960339539e-04 -4.7210006613287022e-03 0.0000000000000000e+00  5.0847425201834789e-04 -4.7050125244611227e-03 0.0000000000000000e+00  4.1510038076768947e-04 -4.7284629569955480e-03 0.0000000000000000e+00  5.0847425201834789e-04 -4.7050125244611227e-03 0.0000000000000000e+00  6.6156904157118875e-04 -4.6846374591171221e-03 0.0000000000000000e+00  3.9311458473119583e-04 -4.8906314163121795e-03 0.0000000000000000e+00  6.8097277673429717e-04 -4.8812176066955907e-03 0.0000000000000000e+00  4.4139289392808052e-04 -4.6531183957503634e-03 0.0000000000000000e+00  5.7161189215366233e-04 -4.9045513583198998e-03 0.0000000000000000e+00  3.5809393232748103e-04 -4.7962424728034752e-03 0.0000000000000000e+00  6.3146365177659913e-04 -4.8403922332149333e-03 0.0000000000000000e+00  3.9567073640368004e-04 -4.6715787486477627e-03 0.0000000000000000e+00  6.1229507624713556e-04 -4.6414498728833374e-03 0.0000000000000000e+00  4.6868309522244154e-04 -4.8467630720524053e-03 0.0000000000000000e+00  3.8969432440619483e-04 -4.8600341032477498e-03 0.0000000000000000e+00  6.6805875680741808e-04 -4.7966698447298858e-03 0.0000000000000000e+00  6.2570311828861103e-04 -4.6673176545335227e-03 0.0000000000000000e+00  4.1022799610672655e-04 -4.8258296195733963e-03 0.0000000000000000e+00  5.6752389355102040e-04 -4.6847842058400169e-03 0.0000000000000000e+00  6.3054449106497170e-04 -4.8385039032727813e-03 0.0000000000000000e+00  3.8640170952910157e-04 -4.7319750804131009e-03 0.0000000000000000e+00  6.6903326852926553e-04 -4.8175769359701812e-03 0.0000000000000000e+00  4.7374318521081982e-04 -4.8983911008905531e-03 0.0000000000000000e+00  6.3745682623639560e-04 -4.7165093355931937e-03 0.0000000000000000e+00  6.2032149718884301e-04 -4.8902939388054305e-03 0.0000000000000000e+00  4.5205464686073031e-04 -4.7319864714005060e-03 0.0000000000000000e+00  4.2557423316451365e-04 -4.6594073488338853e-03 0.0000000000000000e+00  6.2487122884276748e-04 -4.8529161775964441e-03 0.0000000000000000e+00  5.2239550470969183e-04 -4.6374983874441673e-03 0.0000000000000000e+00  5.0000055617157463e-04 -4.7969441590140780e-03 0.0000000000000000e+00  5.8662098946413209e-04 -4.7257973783246575e-03 0.0000000000000000e+00  4.2913878734802973e-04 -4.7312708546481006e-03 0.0000000000000000e+00  5.0647704044525725e-04 -4.6930295864208525e-03 0.0000000000000000e+00  5.6030083956046207e-04 -4.8418023153557329e-03 0.0000000000000000e+00  6.5486174331348982e-04 -4.8944812858078479e-03 0.0000000000000000e+00  3.8022464420413396e-04 -4.6904966481189775e-03 0.0000000000000000e+00  5.1036404221048610e-04 -4.7538455305069852e-03 0.0000000000000000e+00  5.0021168820533796e-04 -4.8514483129912037e-03 0.0000000000000000e+00  5.0000055617157463e-04 -4.7969441590140780e-03 0.0000000000000000e+00  5.0647704044525725e-04 -4.6930295864208525e-03 0.0000000000000000e+00  6.0905813326166212e-04 -4.7200721463541394e-03 0.0000000000000000e+00  4.6731040920295713e-04 -4.7291863503640891e-03 0.0000000000000000e+00  6.0905813326166212e-04 -4.7200721463541394e-03 0.0000000000000000e+00  5.0021168820533796e-04 -4.8514483129912037e-03 0.0000000000000000e+00  5.8662098946413209e-04 -4.7257973783246575e-03 0.0000000000000000e+00  4.2913878734802973e-04 -4.7312708546481006e-03 0.0000000000000000e+00  5.1036404221048610e-04 -4.7538455305069852e-03 0.0000000000000000e+00  4.6731040920295713e-04 -4.7291863503640891e-03 0.0000000000000000e+00  6.0770319802515966e-04 -4.8652954206598225e-03 0.0000000000000000e+00  3.8455689200426530e-04 -4.8003543631593279e-03 0.0000000000000000e+00  3.8314563804238281e-04 -4.8658228123930067e-03 0.0000000000000000e+00  4.0804593383209032e-04 -4.8489838859709557e-03 0.0000000000000000e+00  4.7861147989450628e-04 -4.9011529031134839e-03 0.0000000000000000e+00  4.1529569644242049e-04 -4.8550127075576563e-03 0.0000000000000000e+00  6.4641724894090808e-04 -4.6515356074390219e-03 0.0000000000000000e+00  6.1389068788641435e-04 -4.6474851708706473e-03 0.0000000000000000e+00  4.3528503007696017e-04 -4.8211220002580607e-03 0.0000000000000000e+00  6.0844324630517413e-04 -4.7628123487828238e-03 0.0000000000000000e+00  6.7930064713792873e-04 -4.7565099421756230e-03 0.0000000000000000e+00  3.5961542868077434e-04 -4.8400261371327139e-03 0.0000000000000000e+00  4.3297772789774986e-04 -4.7910596436005507e-03 0.0000000000000000e+00  6.1702610145444078e-04 -4.7816346702291238e-03 0.0000000000000000e+00  5.6932017632769279e-04 -4.8332993290059224e-03 0.0000000000000000e+00  6.6354276833476922e-04 -4.8794035346304094e-03 0.0000000000000000e+00  4.0569490065018004e-04 -4.6794619007933143e-03 0.0000000000000000e+00  4.2684999483233894e-04 -4.6875517518818015e-03 0.0000000000000000e+00  4.1195661828192923e-04 -4.6961880816889841e-03 0.0000000000000000e+00  6.1101896546817129e-04 -4.7879732672637910e-03 0.0000000000000000e+00  5.6506176046615614e-04 -4.7801312561663156e-03 0.0000000000000000e+00  6.7757808919715191e-04 -4.8467768863185929e-03 0.0000000000000000e+00  5.1608158695549088e-04 -4.6444957768838491e-03 0.0000000000000000e+00  6.4495274558449298e-04 -4.7139569332609616e-03 0.0000000000000000e+00  6.5180847955804500e-04 -4.6776919093924046e-03 0.0000000000000000e+00  5.8608380045204128e-04 -4.6855278728145239e-03 0.0000000000000000e+00  5.7978580662323140e-04 -4.6870515497110399e-03 0.0000000000000000e+00  3.8968489416766505e-04 -4.8659435431195955e-03 0.0000000000000000e+00  4.1216209527519240e-04 -4.7744619539722751e-03 0.0000000000000000e+00  4.4449353290196232e-04 -4.7853765844019878e-03 0.0000000000000000e+00  6.1860584422512887e-04 -4.6791318381015200e-03 0.0000000000000000e+00  3.6608831811083480e-04 -4.8748035984240590e-03 0.0000000000000000e+00  6.3346187060804072e-04 -4.6590289296535572e-03 0.0000000000000000e+00  4.0053478362123699e-04 -4.6598338844467888e-03 0.0000000000000000e+00  5.8130484146966905e-04 -4.6565656720454277e-03 0.0000000000000000e+00  4.3361570010591035e-04 -4.8381969879197420e-03 0.0000000000000000e+00  5.0520935346679246e-04 -4.7869031906779590e-03 0.0000000000000000e+00  5.0185153741296471e-04 -4.6756947943933334e-03 0.0000000000000000e+00  4.5308910521338060e-04 -4.8263503959410509e-03 0.0000000000000000e+00  3.8362037993860867e-04 -4.7343724802286343e-03 0.0000000000000000e+00  3.6463408880408682e-04 -4.7418669446131273e-03 0.0000000000000000e+00  5.3055345510113431e-04 -4.7495739568875206e-03 0.0000000000000000e+00  6.6949048446138606e-04 -4.7235098315792411e-03 0.0000000000000000e+00  6.4205204700984637e-04 -4.8229881046400079e-03 0.0000000000000000e+00  6.2373899977711210e-04 -4.7658297979094781e-03 0.0000000000000000e+00  6.1857648643691952e-04 -4.8829938887688150e-03 0.0000000000000000e+00  4.6278223113149384e-04 -4.6415374454749289e-03 0.0000000000000000e+00  4.4796308853764196e-04 -4.7259338233786733e-03 0.0000000000000000e+00  4.3421280554936848e-04 -4.8795842159455238e-03 0.0000000000000000e+00  5.8534079870346681e-04 -4.7719459310840767e-03 0.0000000000000000e+00  6.0115172504131048e-04 -4.8058732484913304e-03 0.0000000000000000e+00  5.5401703027558842e-04 -4.9066608201029848e-03 0.0000000000000000e+00  6.6561103169880502e-04 -4.8948476573003373e-03 0.0000000000000000e+00  6.8641674149514688e-04 -4.8578413401239116e-03 0.0000000000000000e+00  6.1650758834203489e-04 -4.8411834337618326e-03 0.0000000000000000e+00  5.6711653948199987e-04 -4.6345491076238039e-03 0.0000000000000000e+00  3.8484102959965581e-04 -4.6917737685678662e-03 0.0000000000000000e+00  4.9576442906977178e-04 -4.6818495180768376e-03 0.0000000000000000e+00  5.2751072996865575e-04 -4.8835704388410324e-03 0.0000000000000000e+00  4.4097832402179840e-04 -4.8578804985763384e-03 0.0000000000000000e+00  4.5948337326167971e-04 -4.6941048858164299e-03 0.0000000000000000e+00  5.2874391811371507e-04 -4.8753074981316147e-03 0.0000000000000000e+00  6.8658185797976017e-04 -4.8124277983596026e-03 0.0000000000000000e+00  4.6112363420320381e-04 -4.7113687622309898e-03 0.0000000000000000e+00  3.8236051197067564e-04 -4.8708098167616438e-03 0.0000000000000000e+00  4.3205011198479574e-04 -4.9016962893645927e-03 0.0000000000000000e+00  6.5096279555548319e-04 -4.8661365277550706e-03 0.0000000000000000e+00  4.4784749021345113e-04 -4.7850007196138505e-03 0.0000000000000000e+00  4.1398690989822862e-04 -4.7651911881413135e-03 0.0000000000000000e+00  6.0596537078093696e-04 -4.7450428257478899e-03 0.0000000000000000e+00  6.5640788825774971e-04 -4.8772121995771254e-03 0.0000000000000000e+00  4.0597397888195559e-04 -4.6860362239850859e-03 0.0000000000000000e+00  5.9560832714072723e-04 -4.7053732825571640e-03 0.0000000000000000e+00  6.4946039934515507e-04 -4.7560424640978056e-03 0.0000000000000000e+00  3.8766417735331169e-04 -4.7885096366836900e-03 0.0000000000000000e+00  6.3062934051222048e-04 -4.7943960486929874e-03 0.0000000000000000e+00  6.2443666172207657e-04 -4.9062487631501492e-03 0.0000000000000000e+00  5.7896890133423394e-04 -4.8595215367637397e-03 0.0000000000000000e+00  </DataArray> 
</PointData> 
</Piece>
</UnstructuredGrid>
</VTKFile>