<?xml version="1.0"?>
<VTKFile type="UnstructuredGrid"  version="0.1"  >
<UnstructuredGrid>
<Piece  NumberOfPoints="5315" NumberOfCells="10372">
<Points>
<DataArray  type="Float64"  NumberOfComponents="3"  format="ascii">-1 -1 0  1 -1 0  1 1 0  -1 1 0  0 -1 0  1 0 0  0 1 0  -1 0 0  0 0 0  -1 -0.5 0  -0.5 -1 0  -0.5 1 0  -1 0.5 0  1 -0.5 0  0.5 -1 0  1 0.5 0  0.5 1 0  0.4166666666666666 -0.4166666666666667 0  -0.4166666666666667 0.4166666666666667 0  -0.25 -0.5 0  0.5 0.25 0  -0.4861111111111112 -0.06944444444444445 0  0.0732758620689655 0.507183908045977 0  -0.625 -0.625 0  0.625 0.625 0  0.7380952380952381 -0.25 0  -0.7099116161616161 0.2105429292929293 0  -0.25 0.7380952380952381 0  0.105392156862745 -0.6348039215686275 0  0.6770833333333334 -0.6770833333333333 0  -0.6770833333333334 0.6770833333333334 0  0.3472222222222222 -0.06944444444444446 0  -0.7264957264957265 -0.3044871794871795 0  0.3141940982507127 0.7297313660835709 0  0.02049587951122483 -0.3227479397556124 0  -0.2690972222222223 0.1475694444444444 0  0.3859500089908372 -0.7274430156831472 0  -0.2228477945123298 -0.1761765495248019 0  0.2182539682539683 0.1884920634920635 0  0.75 0.375 0  -0.145442219440968 -0.7602211097204841 0  0.7088913690476191 0.0427827380952381 0  -0.75 -1 0  -1 -0.75 0  1 0.75 0  0.75 1 0  -0.7439982703698937 -0.04614153195464455 0  -0.4609235096577606 -0.3356498099556895 0  0.4063134471431929 0.4895621842856023 0  0.25 -1 0  -0.25 -1 0  -0.75 1 0  0.75 -1 0  -1 -0.25 0  -1 0.25 0  1 -0.25 0  -0.25 1 0  1 -0.75 0  -1 0.75 0  0.25 1 0  1 0.25 0  -0.4041423272138783 -0.7597141090712928 0  0.06500839607911253 0.7578103030529481 0  -0.1572801182352047 0.3838997021864289 0  -0.6528005242053915 0.4409494757946086 0  -0.4930160984848485 0.1544744318181818 0  -0.4732142857142858 0.7752976190476191 0  0.6398809523809523 -0.4538690476190476 0  0.5166054117396399 -0.2161233620965164 0  -0.002273787244753427 0.2232363985975174 0  0.1500564496765022 -0.1524955293952667 0  0.2016720420046758 -0.4410343282803009 0  -0.08495178036419618 0.6274139771124571 0  -0.8367311471133162 0.3642591720794645 0  -0.8333333333333334 -0.625 0  -0.594323836800685 -0.8231079456002283 0  -0.4466957714776065 -0.5349126855671806 0  0.8125 0.5625 0  0.78125 0.78125 0  0.5091392650016769 0.7947130883338923 0  0.125 -0.8382681931833136 0  -0.8184523809523809 -0.8184523809523809 0  -0.07781530426104531 -0.5819319697006881 0  0.5085055196703295 0.04967610411902112 0  0.2918471072074933 -0.276017202318847 0  0.5120763537765269 -0.5898771553229597 0  0.625 -0.8585349462365591 0  0.8158532234335381 -0.8158532234335381 0  -0.5198088446315396 0.5739411553684605 0  -0.8585349462365591 0.625 0  -0.8150493805516597 0.8156205699829586 0  0.8585349462365591 -0.625 0  -0.2688268348649726 0.5439331383603209 0  0.8242100426758139 -0.4436043596336612 0  0.5833756314287952 0.4479378157143976 0  0.8690476190476191 -0.125 0  -0.125 0.8690476190476191 0  -0.8692745600729823 0.125 0  0.8696725120759167 0.125 0  -0.625 0.8711516477451908 0  0.2339522463269718 0.3879558377955778 0  0.2453709502295031 0.5655822922838026 0  0.1730610651637797 0.02021709580868947 0  0.3245402594056757 -0.5644672020485209 0  -0.7291666666666666 -0.4816595441595442 0  -1 -0.375 0  -0.5811140848639904 -0.2127276307675001 0  0.673332592838314 0.2158348143233718 0  0.375 1 0  -0.5714768890989919 0.2985103444040069 0  -1 -0.125 0  -0.8453692574786325 -0.1875 0  -0.3144549134065865 -0.02408675326008025 0  -0.2898414972096258 -0.3336092734780093 0  -0.1075052092206287 -0.4224330421314983 0  -0.05043970703604117 -0.1652278959397459 0  0.6459672950297897 -0.1113415301525317 0  0.4645210271029513 0.6398480556579343 0  0.3512863754411909 0.0937979496253573 0  -0.6063160985568274 0.03891469652249891 0  -0.3428819444444445 0.8690476190476191 0  0.625 1 0  -0.1602164796159982 0.02697860906625157 0  0.04648110064133829 -0.4808416424239687 0  1 0.875 0  -0.3836102479201657 0.6484936449177356 0  -0.3776011723096096 0.263078478984336 0  -0.6024978259969829 -0.3949628096211138 0  0.125 1 0  0.2010781308272777 0.8456221018461906 0  0.2822509696388829 -0.845902544691141 0  -0.3285533674953515 -0.6289773550938936 0  0.3461306793221754 0.278777492464833 0  0.4737475672408696 -0.8508448959534423 0  0.2384632828836344 -0.7029523187242811 0  -0.004777287059791593 0.3759269695907358 0  -0.8499735021850066 -0.3912320205328522 0  0.1222536293721587 0.2963971539625205 0  -0.3769456520999688 -0.203572526805711 0  -0.2749617205755651 -0.8464290792698902 0  0.004805888512766143 -0.747174355248311 0  -0.125 -1 0  -0.06001061822252458 -0.8724007765244854 0  0.875 0.4375 0  0.854421179608893 0.271342359217786 0  0.875 1 0  -0.1499861095763589 0.2358309656934888 0  0.3381943639137225 0.8663061796405532 0  -0.7853090110442228 0.4998412775277108 0  0.7398165998560814 -0.5535192694951373 0  0.1580042122341573 -0.3100246140259917 0  -0.7291666666666667 -0.7142857142857142 0  -0.375 -1 0  0.6483368386154684 0.8514905990110488 0  -0.1295370103291928 -0.2826118305021242 0  0.07458201853700455 0.1123894386563915 0  0.6146465857036327 -0.3161203659316075 0  0.5551898493894731 -0.740296118159085 0  0.375 -1 0  0.482702798370208 -0.084133350091034 0  0.87890625 0.68359375 0  -0.05917195534525846 0.4971092425697621 0  0.1260710309213975 0.6343750312956699 0  0.8690476190476191 -0.3077066815262848 0  -0.2912010232560567 0.3668168386732139 0  -0.875 1 0  -1 0.875 0  1 -0.875 0  0.875 -1 0  -0.8689564281364567 -0.006189266075306407 0  -0.7449425635110547 0.08458938160051771 0  -0.7150266761936593 -0.1739444581417552 0  -0.5260034831318311 -0.711099823962112 0  -0.4724626808827322 -0.871722230709409 0  0.4734436795977052 0.377714794132168 0  -0.875 -1 0  -1 -0.875 0  0.6927189078571988 0.5156567235715964 0  -0.3742497615796874 -0.4296005251260107 0  -0.1969436423297711 -0.6387157229772615 0  -0.6179496409766825 -0.08933356056510935 0  -0.424405057115988 0.04452428810878029 0  -0.08479048335844169 0.1279607007132633 0  0.003830300099055113 0.8712085230656206 0  0.8748778838820267 -1.379218479898026e-05 0  -0.375 1 0  -0.625 1 0  1 0.125 0  -0.125 1 0  1 -0.375 0  1 -0.125 0  1 -0.625 0  0.625 -1 0  0.125 -1 0  -0.625 -1 0  -1 -0.625 0  -1 0.125 0  -1 0.375 0  -1 0.625 0  1 0.375 0  1 0.625 0  0.6325660748712082 0.3335187599557389 0  -0.06420945895056573 0.7549874027425891 0  -0.8769015540914771 0.2478802253893416 0  0.871875 0.871875 0  -0.6868091492840067 0.3270978624973681 0  -0.5363597469565949 0.412994850055505 0  -0.6803734992638302 0.5574295000651103 0  -0.7076253581162534 -0.8803439094224437 0  -0.8778089002295137 -0.5106896447504627 0  -0.3860184984222981 0.530566778071246 0  0.6109900617121508 0.1128453077697081 0  0.3896945134930274 -0.1915382873255086 0  0.7605656944697778 -0.06822134873122943 0  0.3576151269893478 0.5948388411612135 0  -0.5689902680792265 -0.5143596830118065 0  0.6262446286847614 -0.5735657901943212 0  0.2030558252325225 -0.5625263842513452 0  0.6123273142928579 0.7407533260723429 0  0.4016460890123554 -0.3042863223111857 0  -0.59039693199147 0.7578418819188018 0  0.7276932493917544 -0.3705808024528924 0  0.5222536818742854 -0.4713886230400014 0  -0.5101986527137737 0.8848365765607674 0  0.510560172809238 0.5356013299918891 0  -0.3603569195756083 0.75823710606415 0  0.1967279277813232 0.728226870058472 0  -0.6086880986371127 0.1545624071548516 0  -0.38105366729386 0.1511189987807864 0  -0.2944659463671584 -0.7359061804869591 0  0.5060729154966499 -0.3475227845833823 0  -0.09281616240412746 -0.06197858250969457 0  0.7649739583333334 0.6673177083333334 0  0.7628906249999999 0.890234375 0  -0.2666864184909611 0.2585504071132311 0  0.3635064892129658 0.3878003602709461 0  -0.2339409722222222 0.8901937905844155 0  -0.1718792125974916 -0.8957733325456778 0  0.1001768566329531 0.4023510017391879 0  0.3120260172693757 -0.4540546875576884 0  0.7804062804433681 0.1896628610854537 0  0.4087715451998049 0.187961780041608 0  -0.1584963477271457 0.5451611892421655 0  -0.8926817849258324 0.463022006336401 0  0.2338091473445219 -0.07576267331277289 0  0.08171112182813692 -0.2349087687359925 0  0.04635385178956847 -0.1044635073718474 0  -0.4377391632114205 -0.6448874471423088 0  -0.1907678351227189 0.6480215912813945 0  0.300605946475244 0.4741444604171038 0  -0.2145033720757486 -0.06751709909419711 0  0.6069191921170397 -0.005492331448357812 0  0.0214718770761248 0.6032397936031719 0  0.5476675683364878 0.8992752415326501 0  0.4387475014316537 0.9093708953002239 0  -0.4932997685306436 -0.4381009159993523 0  0.2515197695339056 -0.1791673369138964 0  -0.7291666666666667 -0.6088789682539681 0  -0.9166666666666667 -0.6875 0  0.620579540363709 -0.2122431523583302 0  -0.484950136419973 0.6719440339397442 0  0.2857044415400258 0.0137589173127316 0  -0.8945708364098356 -0.288306105327986 0  0.4043102720140535 0.7842914560451557 0  0.04123256238752064 -0.9026968245801402 0  0.2003676884403109 -0.9091888601740487 0  0.1068775558538842 -0.7373377130403223 0  -0.4804566783514427 -0.1763307203045643 0  0.108286342087769 -0.3993789328997278 0  -0.191883080105361 -0.3640821726430649 0  -0.07025064492006244 0.2984876656890053 0  -0.7039324641409584 0.788312126296613 0  -0.7311286585775438 0.8932502354831682 0  0.5171409396884947 0.1503852691889257 0  0.4229392823658633 -0.003216522184234835 0  -0.5621736087218259 -0.919558629836806 0  -0.626474064879544 -0.7266572613636506 0  0.2446828746617422 0.2867616783302419 0  0.1759429608742923 0.4776611759306416 0  -0.3468240303741654 -0.5260416435617549 0  -0.7465808808425306 0.4069574477998361 0  -0.7819962170660292 0.2802441065650652 0  -0.3742623214119594 -0.8547800509641984 0  0.1014498009713561 0.8506721983266377 0  0.4285217620918213 -0.5230190595570253 0  0.4091738370487775 -0.6256346204225141 0  0.78125 0.46875 0  0.90625 0.53125 0  -0.4791801348852565 0.2553992655702126 0  0.7843318610782772 -0.7086046956885941 0  0.8909728264971901 -0.7355183796514634 0  0.7041908166528879 -0.7830649143180282 0  0.731182135
[...]
<PointData  Vectors="f_21"> 
<DataArray  type="Float64"  Name="f_21"  NumberOfComponents="3" format="ascii">-7.2288985516466541e-09 -4.1932147299790310e-08 0.0000000000000000e+00  -7.2288985516466541e-09 -4.1932147299790310e-08 0.0000000000000000e+00  -7.2288985516466541e-09 -4.1932147299790310e-08 0.0000000000000000e+00  -7.2288985516466541e-09 -4.1932147299790310e-08 0.0000000000000000e+00  -8.1837423127158468e-09 -4.5874797649149756e-08 0.0000000000000000e+00  -2.5581801248507501e-09 -4.1639313252177012e-08 0.0000000000000000e+00  -8.1837423127158468e-09 -4.5874797649149756e-08 0.0000000000000000e+00  -2.5581801248507501e-09 -4.1639313252177012e-08 0.0000000000000000e+00  -3.8034687418751399e-09 -4.5495050251700156e-08 0.0000000000000000e+00  -1.4838993046741749e-04 -4.1508790502173446e-08 0.0000000000000000e+00  -7.4487501097553521e-09 1.4834300632849776e-04 0.0000000000000000e+00  -7.4487501097553521e-09 1.4834300632849776e-04 0.0000000000000000e+00  1.4838008061953106e-04 -4.1556859829437940e-08 0.0000000000000000e+00  -1.4838993046741749e-04 -4.1508790502173446e-08 0.0000000000000000e+00  -7.4025754845876562e-09 -1.4843014641177966e-04 0.0000000000000000e+00  1.4838008061953106e-04 -4.1556859829437940e-08 0.0000000000000000e+00  -7.4025754845876562e-09 -1.4843014641177966e-04 0.0000000000000000e+00  3.7092657439863946e-05 3.7051643530623994e-05 0.0000000000000000e+00  -3.7102357962474107e-05 -3.7138896682916174e-05 0.0000000000000000e+00  1.0492059536489720e-04 -4.3789077409921301e-08 0.0000000000000000e+00  -3.8353614359140244e-09 1.0488014410878761e-04 0.0000000000000000e+00  1.3983975588096350e-06 -1.4477304540806783e-04 0.0000000000000000e+00  -1.4443989119091024e-04 -8.1009435788808096e-07 0.0000000000000000e+00  -5.2467753100981903e-05 5.2419937345631940e-05 0.0000000000000000e+00  5.2455823947421960e-05 -5.2505761199201158e-05 0.0000000000000000e+00  -7.1369639234119007e-05 7.6872164030972702e-05 0.0000000000000000e+00  5.5841394208782841e-05 -9.2582075506876958e-05 0.0000000000000000e+00  -7.6922553814328266e-05 7.1322006090747433e-05 0.0000000000000000e+00  1.2792422619986517e-04 -1.9868746721199051e-05 0.0000000000000000e+00  -6.6547096719823257e-05 -6.6585305958905482e-05 0.0000000000000000e+00  6.6534474270609083e-05 6.6500240381064111e-05 0.0000000000000000e+00  1.4826987664768230e-05 1.2845443585157484e-04 0.0000000000000000e+00  -7.9190164450110206e-05 -6.4808214213493779e-05 0.0000000000000000e+00  -6.1397083857414267e-05 -8.1847357796450119e-05 0.0000000000000000e+00  1.2570315517579372e-04 5.0007153581590900e-06 0.0000000000000000e+00  -4.4025307434514660e-05 -9.9351361082646860e-05 0.0000000000000000e+00  3.9301252046937326e-05 -9.1102055206789562e-05 0.0000000000000000e+00  5.9649209535706871e-05 -8.1374593631569910e-05 0.0000000000000000e+00  -6.4108532391039677e-05 7.7911974258216657e-05 0.0000000000000000e+00  9.6933366256230180e-05 4.0109517302857355e-05 0.0000000000000000e+00  9.1082589686278343e-05 4.7708739733364629e-05 0.0000000000000000e+00  1.2129813295884027e-05 1.1645980824412601e-04 0.0000000000000000e+00  -7.9894079774968680e-09 1.0488322057707136e-04 0.0000000000000000e+00  -1.0493072854867789e-04 -4.1545386628869728e-08 0.0000000000000000e+00  1.0491698166614559e-04 -4.1453271739946666e-08 0.0000000000000000e+00  -7.7704157427548810e-09 -1.0496712623046978e-04 0.0000000000000000e+00  -1.4869914836794489e-05 -1.0580518656151397e-04 0.0000000000000000e+00  1.5797755555491518e-05 -7.2747145549401267e-05 0.0000000000000000e+00  -4.3027797039204574e-05 4.6100476523367358e-06 0.0000000000000000e+00  -7.5786283236972424e-09 -1.0497020405511146e-04 0.0000000000000000e+00  -7.1583303680731128e-09 1.0488017234863422e-04 0.0000000000000000e+00  -7.9894079774968680e-09 1.0488322057707136e-04 0.0000000000000000e+00  -7.7704157427548810e-09 -1.0496712623046978e-04 0.0000000000000000e+00  -1.0492725452323880e-04 -4.1652368161508649e-08 0.0000000000000000e+00  1.0492086800129420e-04 -4.1350879377140025e-08 0.0000000000000000e+00  -1.0492725452323880e-04 -4.1652368161508649e-08 0.0000000000000000e+00  -7.1583303680731128e-09 1.0488017234863422e-04 0.0000000000000000e+00  -1.0493072854867789e-04 -4.1545386628869728e-08 0.0000000000000000e+00  1.0491698166614559e-04 -4.1453271739946666e-08 0.0000000000000000e+00  -7.5786283236972424e-09 -1.0497020405511146e-04 0.0000000000000000e+00  1.0492086800129420e-04 -4.1350879377140025e-08 0.0000000000000000e+00  3.0152337525396221e-05 1.0316974800829571e-04 0.0000000000000000e+00  -1.0020005787246421e-04 -2.1841535608968513e-05 0.0000000000000000e+00  -1.2204825617022756e-04 -2.5146849430288385e-05 0.0000000000000000e+00  6.7345522678506230e-05 -2.4317727960715197e-05 0.0000000000000000e+00  -1.5218706965090513e-06 -1.3126311895014748e-04 0.0000000000000000e+00  -8.0979472663384068e-06 1.1248100637981829e-04 0.0000000000000000e+00  -6.2470790890410756e-05 1.9349486086125250e-05 0.0000000000000000e+00  -4.8620501527101541e-06 1.1527495342361407e-04 0.0000000000000000e+00  -9.5744521888501067e-05 -8.5569140945389762e-07 0.0000000000000000e+00  6.0936419275922528e-05 5.9756490705404487e-05 0.0000000000000000e+00  1.1753698548910802e-04 1.6134670712612658e-05 0.0000000000000000e+00  -1.3182422267143525e-04 1.5204403360628776e-05 0.0000000000000000e+00  1.1770780219077946e-04 -3.0159897807178672e-05 0.0000000000000000e+00  -1.1872931581847969e-04 2.8350765206400256e-05 0.0000000000000000e+00  -2.2865993935745894e-05 1.2052027657048565e-04 0.0000000000000000e+00  2.4579269362442554e-05 1.5972516189810519e-05 0.0000000000000000e+00  1.2100134492107083e-04 -1.6124819841462825e-05 0.0000000000000000e+00  7.2760020493250896e-05 -7.2809699409703832e-05 0.0000000000000000e+00  2.5530002902274664e-06 -1.1857676188897317e-04 0.0000000000000000e+00  6.6689587935765961e-05 -4.9657163666962919e-05 0.0000000000000000e+00  -6.7442010424729164e-05 6.7394346106212889e-05 0.0000000000000000e+00  1.3922581185261081e-04 9.0971813306701578e-06 0.0000000000000000e+00  6.1355839119672370e-07 1.4648538190194664e-04 0.0000000000000000e+00  6.8822029544648357e-05 7.6155356688730464e-05 0.0000000000000000e+00  -5.4109173047062699e-06 -4.1358198856568723e-05 0.0000000000000000e+00  -2.4420813028836051e-05 -1.2381685370540694e-04 0.0000000000000000e+00  -6.7938419793420239e-05 -6.7974053912719432e-05 0.0000000000000000e+00  8.9746429881533783e-06 3.4050772024104572e-05 0.0000000000000000e+00  1.2376662934995852e-04 2.4372701284330635e-05 0.0000000000000000e+00  6.7888113105606015e-05 6.8120168742514568e-05 0.0000000000000000e+00  -1.2377848558379405e-04 -2.4456229743297155e-05 0.0000000000000000e+00  -9.7608058892380520e-05 1.5219690872729932e-05 0.0000000000000000e+00  -1.2435310565888733e-04 1.3677708975564654e-05 0.0000000000000000e+00  3.7905591523529605e-05 2.3293076391626822e-05 0.0000000000000000e+00  -5.2048756574160242e-05 5.4778755386892885e-05 0.0000000000000000e+00  -5.4827801246430710e-05 5.2002046817746207e-05 0.0000000000000000e+00  5.2060417177542619e-05 -5.4772918644083970e-05 0.0000000000000000e+00  5.2088337106816847e-05 5.4532277801256627e-05 0.0000000000000000e+00  2.2355749218622786e-05 1.2596966458324634e-04 0.0000000000000000e+00  -1.0333415668496924e-04 3.4260336739100899e-05 0.0000000000000000e+00  -1.0419439431139891e-04 -2.1197061174534944e-05 0.0000000000000000e+00  -8.0637591640286910e-06 7.6557825190464766e-05 0.0000000000000000e+00  7.6120711157909711e-05 -2.5472328034250597e-05 0.0000000000000000e+00  -9.7679557523859339e-05 -6.4661655999702164e-06 0.0000000000000000e+00  -1.3709380070391390e-04 -4.1688040324029769e-08 0.0000000000000000e+00  -2.3180949496440977e-05 -1.1274522423441758e-04 0.0000000000000000e+00  4.8213921279177269e-05 9.8804182971247621e-05 0.0000000000000000e+00  -7.6370465347891676e-09 -1.3713571574446726e-04 0.0000000000000000e+00  2.6635540111637789e-05 -8.5618333109507486e-05 0.0000000000000000e+00  -5.6786558690507311e-05 -4.1849674792868939e-08 0.0000000000000000e+00  -7.2903312722038521e-05 -5.7647317583389544e-05 0.0000000000000000e+00  6.1723918106971540e-06 -1.2357164752334912e-04 0.0000000000000000e+00  7.8848794050416309e-05 -5.8556991036008513e-05 0.0000000000000000e+00  1.3586289126268230e-04 -1.1908683007097445e-05 0.0000000000000000e+00  7.2685736546491739e-05 -2.0377476499689578e-05 0.0000000000000000e+00  -2.2513037997731080e-05 1.2495441985965365e-04 0.0000000000000000e+00  -1.4943823252220229e-05 -6.2769002175116107e-05 0.0000000000000000e+00  -1.9412533428562799e-05 1.2672774555461550e-04 0.0000000000000000e+00  5.9295020875984510e-06 -1.3918154968322127e-04 0.0000000000000000e+00  -2.8121649131692433e-05 1.1972682277495305e-04 0.0000000000000000e+00  -6.7603050511884537e-09 -1.3713442936652426e-04 0.0000000000000000e+00  -1.1006272986419087e-05 -7.1362862366147227e-05 0.0000000000000000e+00  1.4653627359463800e-04 1.2530098237888757e-06 0.0000000000000000e+00  5.6776410468164164e-05 -4.1285875974498462e-08 0.0000000000000000e+00  -4.7393361055776556e-05 6.2284047169664105e-05 0.0000000000000000e+00  -4.0946460568423505e-05 -9.3229265166903258e-05 0.0000000000000000e+00  -4.4430435449966849e-05 -4.5651516928318896e-05 0.0000000000000000e+00  -7.6422422716766933e-09 -5.6830228488667666e-05 0.0000000000000000e+00  -5.5834901451748223e-05 -7.7566095751317786e-05 0.0000000000000000e+00  4.3637423709125832e-05 -1.0183002191229661e-04 0.0000000000000000e+00  6.9945315126242817e-05 5.0167590491654274e-05 0.0000000000000000e+00  -5.2975839307979284e-05 8.4089906036786152e-05 0.0000000000000000e+00  5.5140233587354587e-06 -1.3198538087092111e-04 0.0000000000000000e+00  8.7303713713337929e-05 -6.0199182865687156e-05 0.0000000000000000e+00  -1.3724411821028384e-04 -8.9177731064728399e-07 0.0000000000000000e+00  -1.2456695313904485e-04 -2.2618742051532379e-05 0.0000000000000000e+00  -1.1038235924909688e-04 3.3141757755354720e-05 0.0000000000000000e+00  3.3387625715628647e-05 -1.1031683647679487e-04 0.0000000000000000e+00  4.4710470671400242e-05 9.9899812241108492e-05 0.0000000000000000e+00  1.0583334483666419e-04 -1.6158026874743589e-06 0.0000000000000000e+00  -7.7948042149608535e-09 5.6739481652943807e-05 0.0000000000000000e+00  5.6869496910419259e-05 2.5559344599772722e-05 0.0000000000000000e+00  1.3445096983106389e-04 1.1035982364174707e-05 0.0000000000000000e+00  1.0023310153430886e-04 4.3081099387038973e-05 0.0000000000000000e+00  -8.1413804004813500e-09 -5.6825881739500219e-05 0.0000000000000000e+00  -8.9241239102363690e-05 -4.9748086564194342e-05 0.0000000000000000e+00  -2.9458054525769684e-05 -1.1840211986711699e-04 0.0000000000000000e+00  1.1588908891167135e-04 -8.7552759318938308e-08 0.0000000000000000e+00  -1.0008798427625687e-04 -1.8153554634708651e-05 0.0000000000000000e+00  1.0791728632764689e-04 3.9671552679397168e-05 0.0000000000000000e+00  -7.6498090073497325e-05 6.9516811177340173e-05 0.0000000000000000e+00  -7.4340475388914442e-09 1.3704723027127690e-04 0.0000000000000000e+00  2.9982619313086530e-05 -1.1843910011951567e-04 0.0000000000000000e+00  1.0570220137475807e-04 -3.7110313509985661e-05 0.0000000000000000e+00  -4.9911456721391559e-05 3.2279327621624281e-05 0.0000000000000000e+00  -4.3813722427274017e-05 7.5787359777006619e-05 0.0000000000000000e+00  -1.8650532504055332e-05 -1.0019684221900226e-04 0.0000000000000000e+00  -7.6370465347891676e-09 -1.3713571574446726e-04 0.0000000000000000e+00  2.1031426328177217e-06 1.4297598527106831e-04 0.0000000000000000e+00  1.1548150853323795e-04 -3.0087913116127932e-05 0.0000000000000000e+00  -1.4582873642250379e-04 -2.9431605572700455e-07 0.0000000000000000e+00  -1.2488679582989612e-04 -2.3500802808591847e-05 0.0000000000000000e+00  -1.1193596390010969e-04 3.3663690779605696e-05 0.0000000000000000e+00  -8.2701716170588551e-05 -4.7820800029300951e-05 0.0000000000000000e+00  -6.3646986526799677e-09 5.6743608048960698e-05 0.0000000000000000e+00  5.6776410468164164e-05 -4.1285875974498462e-08 0.0000000000000000e+00  -5.6792090775828804e-05 -4.2563349238838784e-08 0.0000000000000000e+00  -8.1413804004813500e-09 -5.6825881739500219e-05 0.0000000000000000e+00  -2.6479331723770336e-06 -5.9407862919165182e-05 0.0000000000000000e+00  2.7112967372387518e-05 -1.0287841369109622e-04 0.0000000000000000e+00  -4.8220523243054173e-05 -9.8975139287872069e-05 0.0000000000000000e+00  -9.5478882722559974e-06 9.1003107132984907e-05 0.0000000000000000e+00  5.0215222241159006e-06 1.3594528575945413e-04 0.0000000000000000e+00  -1.1468563946277302e-05 5.5375346135355300e-05 0.0000000000000000e+00  -6.3646986526799677e-09 5.6743608048960698e-05 0.0000000000000000e+00  -5.6792090775828804e-05 -4.2563349238838784e-08 0.0000000000000000e+00  8.4341564846916565e-05 -6.0423851104511208e-06 0.0000000000000000e+00  5.5713291326362489e-05 -3.0086742399223907e-05 0.0000000000000000e+00  1.0957557772784327e-04 3.6283964434207027e-05 0.0000000000000000e+00  -1.4885392852030041e-05 -1.3294528574825566e-04 0.0000000000000000e+00  -4.8700233535055959e-06 -1.4285521431214296e-04 0.0000000000000000e+00  -5.6013230734937999e-05 -3.5992443993922422e-05 0.0000000000000000e+00  -5.8417006185783358e-05 -1.6857907276496920e-06 0.0000000000000000e+00  -7.9641487648813395e-09 5.6794626502662234e-05 0.0000000000000000e+00  -7.4340475388914442e-09 1.3704723027127690e-04 0.0000000000000000e+00  -7.4983761730844953e-09 1.3704873917624484e-04 0.0000000000000000e+00  5.6781748982670241e-05 -4.0894278598111416e-08 0.0000000000000000e+00  -7.7948042149608535e-09 5.6739481652943807e-05 0.0000000000000000e+00  -1.3709380070391390e-04 -4.1688040324029769e-08 0.0000000000000000e+00  -5.6786558690507311e-05 -4.1849674792868939e-08 0.0000000000000000e+00  -1.3709596471948315e-04 -4.1274779566430708e-08 0.0000000000000000e+00  -6.7603050511884537e-09 -1.3713442936652426e-04 0.0000000000000000e+00  -7.6422422716766933e-09 -5.6830228488667666e-05 0.0000000000000000e+00  -7.4983761730844953e-09 1.3704873917624484e-04 0.0000000000000000e+00  -1.3709596471948315e-04 -4.1274779566430708e-08 0.0000000000000000e+00  5.6781748982670241e-05 -4.0894278598111416e-08 0.0000000000000000e+00  1.3708595988781410e-04 -4.1294205190902706e-08 0.0000000000000000e+00  1.3708403856884686e-04 -4.1317702703788682e-08 0.0000000000000000e+00  1.3708595988781410e-04 -4.1294205190902706e-08 0.0000000000000000e+00  1.3708403856884686e-04 -4.1317702703788682e-08 0.0000000000000000e+00  5.1997677472790260e-05 6.7738530165174424e-05 0.0000000000000000e+00  -1.0118133916962944e-04 2.1303147261971598e-05 0.0000000000000000e+00  9.6523096377106190e-05 -3.9876457212226279e-05 0.0000000000000000e+00  5.3473907736419696e-05 -5.3523893440412902e-05 0.0000000000000000e+00  7.0339738740618528e-05 -6.3903221104728183e-05 0.0000000000000000e+00  1.6279555462591065e-05 -3.9836424561801449e-05 0.0000000000000000e+00  7.8357079216476879e-05 2.2422979329854888e-05 0.0000000000000000e+00  -3.3072873872393953e-05 1.0964728402998986e-04 0.0000000000000000e+00  -1.3751345594047743e-04 1.8242723657722754e-06 0.0000000000000000e+00  -5.1772131134223819e-05 1.3282238415591666e-05 0.0000000000000000e+00  1.7596173358914523e-05 1.3074017475275012e-04 0.0000000000000000e+00  2.8525677402681019e-05 1.1500617167099863e-04 0.0000000000000000e+00  -2.3046780869743198e-05 9.9022272838053692e-05 0.0000000000000000e+00  -6.1362250557278131e-05 -3.9318409064133788e-05 0.0000000000000000e+00  -3.1882164924851347e-05 6.4933314738101585e-06 0.0000000000000000e+00  -5.5801641691757507e-05 -3.1394848009796388e-05 0.0000000000000000e+00  1.1690650963314731e-04 -1.7292606794313045e-05 0.0000000000000000e+00  3.7293464547033216e-05 -9.5601484726073768e-05 0.0000000000000000e+00  3.6856478632367126e-05 8.1495886338272584e-05 0.0000000000000000e+00  2.8658663053192323e-05 1.0313054946761055e-04 0.0000000000000000e+00  -8.9389480007905041e-05 4.4255200597955383e-05 0.0000000000000000e+00  -1.0328824369478869e-05 1.3242706431851797e-05 0.0000000000000000e+00  1.6746802770033174e-06 1.3866550692855664e-04 0.0000000000000000e+00  4.8846181338797879e-06 -1.6597283370512663e-05 0.0000000000000000e+00  -4.3407331417854707e-05 9.7371295163720790e-05 0.0000000000000000e+00  -9.1167174803517028e-05 -5.6545447413563543e-05 0.0000000000000000e+00  2.3187335217446578e-05 -1.2369861553321098e-04 0.0000000000000000e+00  -2.4763936750019804e-05 -1.2291090669881876e-04 0.0000000000000000e+00  6.5866398679526115e-05 7.9964902218981418e-05 0.0000000000000000e+00  -2.5149056368171627e-06 6.8335945019580888e-05 0.0000000000000000e+00  2.7495670245769025e-05 -4.1896538457343891e-05 0.0000000000000000e+00  9.4919890307228728e-05 -5.0156973798297850e-05 0.0000000000000000e+00  3.6868805261332448e-05 -9.4711586904103261e-05 0.0000000000000000e+00  -7.2067434397871325e-05 -7.5900112502471913e-05 0.0000000000000000e+00  -5.7908003496607499e-05 4.6543622499665846e-05 0.0000000000000000e+00  -3.7233834462424907e-05 9.3593466077449824e-05 0.0000000000000000e+00  4.0925513424621793e-05 7.2189285300986621e-05 0.0000000000000000e+00  -1.3451454253628737e-04 1.3825313766099532e-05 0.0000000000000000e+00  8.1758941600230524e-05 1.7684480846223646e-05 0.0000000000000000e+00  6.4228660575087329e-05 7.8122221784902193e-05 0.0000000000000000e+00  -2.3359991052450041e-05 1.1818449780206340e-04 0.0000000000000000e+00  -1.2906373843872727e-04 9.9761795905935111e-06 0.0000000000000000e+00  1.3908260075546911e-04 -5.7305125497017076e-06 0.0000000000000000e+00  2.5961683685274096e-05 9.6604726216655969e-05 0.0000000000000000e+00  9.6559755991156444e-05 2.7826621396610272e-05 0.0000000000000000e+00  4.7319317204938089e-05 2.0337036791709011e-05 0.0000000000000000e+00  2.5896945753335341e-05 6.3946133156562085e-05 0.0000000000000000e+00  -1.0952122324458487e-04 3.7490190581648982e-05 0.0000000000000000e+00  -8.6708609664316926e-05 9.7082304703194808e-06 0.0000000000000000e+00  2.4407037408435306e-05 -9.0565710261182535e-05 0.0000000000000000e+00  -8.4627680485294850e-07 1.4002789948166597e-04 0.0000000000000000e+00  -1.4033541644572844e-04 -3.2331409637100229e-06 0.0000000000000000e+00  6.8814921900846736e-06 -1.3948440662739302e-04 0.0000000000000000e+00  -7.9782105226737740e-06 -1.3982830355905253e-04 0.0000000000000000e+00  3.0601285180356665e-06 -2.8710387288369124e-05 0.0000000000000000e+00  5.5718135299422481e-05 8.9114971988839284e-05 0.0000000000000000e+00  -9.2174992583875486e-05 3.7378674346187262e-05 0.0000000000000000e+00  -1.1918019122547544e-04 2.1294992312668873e-05 0.0000000000000000e+00  -3.3941152022338869e-05 1.0829352073569613e-04 0.0000000000000000e+00  -6.0211721424805057e-06 7.6184338185099730e-05 0.0000000000000000e+00  -4.0007978466483003e-06 1.1585634135270525e-04 0.0000000000000000e+00  -1.1041795340027872e-04 -2.9819453447588224e-05 0.0000000000000000e+00  -2.7555977114094696e-05 -1.1045874667787818e-04 0.0000000000000000e+00  4.4276323839306331e-05 -1.8324217930813603e-05 0.0000000000000000e+00  3.3750495394587122e-05 -8.3872319190501110e-05 0.0000000000000000e+00  1.0292055703752495e-04 -3.3215746102629345e-05 0.0000000000000000e+00  4.7871308530106365e-06 -1.2599880150239697e-04 0.0000000000000000e+00  1.3294727071370223e-04 1.5345851024054703e-05 0.0000000000000000e+00  1.1125312243697274e-04 -3.4886228562613068e-05 0.0000000000000000e+00  -1.1673314304898101e-04 -1.9262976616162062e-05 0.0000000000000000e+00  5.4725393432532608e-05 9.3567307825530616e-05 0.0000000000000000e+00  3.2417775672647659e-05 1.0473431735962876e-04 0.0000000000000000e+00  3.6310771131958155e-06 1.3189475004504863e-04 0.0000000000000000e+00  3.5714679697337036e-07 1.4400620517784785e-04 0.0000000000000000e+00  -7.2078847302711949e-06 1.4089843037310719e-04 0.0000000000000000e+00  -4.3473369256640525e-05 8.9359562315624588e-05 0.0000000000000000e+00  -8.3614495599200285e-05 6.4005786781110946e-05 0.0000000000000000e+00  -1.2598376596999712e-04 5.4171041699461184e-06 0.0000000000000000e+00  6.8447033910270104e-05 1.0704895987533710e-05 0.0