<?xml version="1.0"?>
<VTKFile type="UnstructuredGrid"  version="0.1"  >
<UnstructuredGrid>
<Piece  NumberOfPoints="5315" NumberOfCells="10372">
<Points>
<DataArray  type="Float64"  NumberOfComponents="3"  format="ascii">-1 -1 0  1 -1 0  1 1 0  -1 1 0  0 -1 0  1 0 0  0 1 0  -1 0 0  0 0 0  -1 -0.5 0  -0.5 -1 0  -0.5 1 0  -1 0.5 0  1 -0.5 0  0.5 -1 0  1 0.5 0  0.5 1 0  0.4166666666666666 -0.4166666666666667 0  -0.4166666666666667 0.4166666666666667 0  -0.25 -0.5 0  0.5 0.25 0  -0.4861111111111112 -0.06944444444444445 0  0.0732758620689655 0.507183908045977 0  -0.625 -0.625 0  0.625 0.625 0  0.7380952380952381 -0.25 0  -0.7099116161616161 0.2105429292929293 0  -0.25 0.7380952380952381 0  0.105392156862745 -0.6348039215686275 0  0.6770833333333334 -0.6770833333333333 0  -0.6770833333333334 0.6770833333333334 0  0.3472222222222222 -0.06944444444444446 0  -0.7264957264957265 -0.3044871794871795 0  0.3141940982507127 0.7297313660835709 0  0.02049587951122483 -0.3227479397556124 0  -0.2690972222222223 0.1475694444444444 0  0.3859500089908372 -0.7274430156831472 0  -0.2228477945123298 -0.1761765495248019 0  0.2182539682539683 0.1884920634920635 0  0.75 0.375 0  -0.145442219440968 -0.7602211097204841 0  0.7088913690476191 0.0427827380952381 0  -0.75 -1 0  -1 -0.75 0  1 0.75 0  0.75 1 0  -0.7439982703698937 -0.04614153195464455 0  -0.4609235096577606 -0.3356498099556895 0  0.4063134471431929 0.4895621842856023 0  0.25 -1 0  -0.25 -1 0  -0.75 1 0  0.75 -1 0  -1 -0.25 0  -1 0.25 0  1 -0.25 0  -0.25 1 0  1 -0.75 0  -1 0.75 0  0.25 1 0  1 0.25 0  -0.4041423272138783 -0.7597141090712928 0  0.06500839607911253 0.7578103030529481 0  -0.1572801182352047 0.3838997021864289 0  -0.6528005242053915 0.4409494757946086 0  -0.4930160984848485 0.1544744318181818 0  -0.4732142857142858 0.7752976190476191 0  0.6398809523809523 -0.4538690476190476 0  0.5166054117396399 -0.2161233620965164 0  -0.002273787244753427 0.2232363985975174 0  0.1500564496765022 -0.1524955293952667 0  0.2016720420046758 -0.4410343282803009 0  -0.08495178036419618 0.6274139771124571 0  -0.8367311471133162 0.3642591720794645 0  -0.8333333333333334 -0.625 0  -0.594323836800685 -0.8231079456002283 0  -0.4466957714776065 -0.5349126855671806 0  0.8125 0.5625 0  0.78125 0.78125 0  0.5091392650016769 0.7947130883338923 0  0.125 -0.8382681931833136 0  -0.8184523809523809 -0.8184523809523809 0  -0.07781530426104531 -0.5819319697006881 0  0.5085055196703295 0.04967610411902112 0  0.2918471072074933 -0.276017202318847 0  0.5120763537765269 -0.5898771553229597 0  0.625 -0.8585349462365591 0  0.8158532234335381 -0.8158532234335381 0  -0.5198088446315396 0.5739411553684605 0  -0.8585349462365591 0.625 0  -0.8150493805516597 0.8156205699829586 0  0.8585349462365591 -0.625 0  -0.2688268348649726 0.5439331383603209 0  0.8242100426758139 -0.4436043596336612 0  0.5833756314287952 0.4479378157143976 0  0.8690476190476191 -0.125 0  -0.125 0.8690476190476191 0  -0.8692745600729823 0.125 0  0.8696725120759167 0.125 0  -0.625 0.8711516477451908 0  0.2339522463269718 0.3879558377955778 0  0.2453709502295031 0.5655822922838026 0  0.1730610651637797 0.02021709580868947 0  0.3245402594056757 -0.5644672020485209 0  -0.7291666666666666 -0.4816595441595442 0  -1 -0.375 0  -0.5811140848639904 -0.2127276307675001 0  0.673332592838314 0.2158348143233718 0  0.375 1 0  -0.5714768890989919 0.2985103444040069 0  -1 -0.125 0  -0.8453692574786325 -0.1875 0  -0.3144549134065865 -0.02408675326008025 0  -0.2898414972096258 -0.3336092734780093 0  -0.1075052092206287 -0.4224330421314983 0  -0.05043970703604117 -0.1652278959397459 0  0.6459672950297897 -0.1113415301525317 0  0.4645210271029513 0.6398480556579343 0  0.3512863754411909 0.0937979496253573 0  -0.6063160985568274 0.03891469652249891 0  -0.3428819444444445 0.8690476190476191 0  0.625 1 0  -0.1602164796159982 0.02697860906625157 0  0.04648110064133829 -0.4808416424239687 0  1 0.875 0  -0.3836102479201657 0.6484936449177356 0  -0.3776011723096096 0.263078478984336 0  -0.6024978259969829 -0.3949628096211138 0  0.125 1 0  0.2010781308272777 0.8456221018461906 0  0.2822509696388829 -0.845902544691141 0  -0.3285533674953515 -0.6289773550938936 0  0.3461306793221754 0.278777492464833 0  0.4737475672408696 -0.8508448959534423 0  0.2384632828836344 -0.7029523187242811 0  -0.004777287059791593 0.3759269695907358 0  -0.8499735021850066 -0.3912320205328522 0  0.1222536293721587 0.2963971539625205 0  -0.3769456520999688 -0.203572526805711 0  -0.2749617205755651 -0.8464290792698902 0  0.004805888512766143 -0.747174355248311 0  -0.125 -1 0  -0.06001061822252458 -0.8724007765244854 0  0.875 0.4375 0  0.854421179608893 0.271342359217786 0  0.875 1 0  -0.1499861095763589 0.2358309656934888 0  0.3381943639137225 0.8663061796405532 0  -0.7853090110442228 0.4998412775277108 0  0.7398165998560814 -0.5535192694951373 0  0.1580042122341573 -0.3100246140259917 0  -0.7291666666666667 -0.7142857142857142 0  -0.375 -1 0  0.6483368386154684 0.8514905990110488 0  -0.1295370103291928 -0.2826118305021242 0  0.07458201853700455 0.1123894386563915 0  0.6146465857036327 -0.3161203659316075 0  0.5551898493894731 -0.740296118159085 0  0.375 -1 0  0.482702798370208 -0.084133350091034 0  0.87890625 0.68359375 0  -0.05917195534525846 0.4971092425697621 0  0.1260710309213975 0.6343750312956699 0  0.8690476190476191 -0.3077066815262848 0  -0.2912010232560567 0.3668168386732139 0  -0.875 1 0  -1 0.875 0  1 -0.875 0  0.875 -1 0  -0.8689564281364567 -0.006189266075306407 0  -0.7449425635110547 0.08458938160051771 0  -0.7150266761936593 -0.1739444581417552 0  -0.5260034831318311 -0.711099823962112 0  -0.4724626808827322 -0.871722230709409 0  0.4734436795977052 0.377714794132168 0  -0.875 -1 0  -1 -0.875 0  0.6927189078571988 0.5156567235715964 0  -0.3742497615796874 -0.4296005251260107 0  -0.1969436423297711 -0.6387157229772615 0  -0.6179496409766825 -0.08933356056510935 0  -0.424405057115988 0.04452428810878029 0  -0.08479048335844169 0.1279607007132633 0  0.003830300099055113 0.8712085230656206 0  0.8748778838820267 -1.379218479898026e-05 0  -0.375 1 0  -0.625 1 0  1 0.125 0  -0.125 1 0  1 -0.375 0  1 -0.125 0  1 -0.625 0  0.625 -1 0  0.125 -1 0  -0.625 -1 0  -1 -0.625 0  -1 0.125 0  -1 0.375 0  -1 0.625 0  1 0.375 0  1 0.625 0  0.6325660748712082 0.3335187599557389 0  -0.06420945895056573 0.7549874027425891 0  -0.8769015540914771 0.2478802253893416 0  0.871875 0.871875 0  -0.6868091492840067 0.3270978624973681 0  -0.5363597469565949 0.412994850055505 0  -0.6803734992638302 0.5574295000651103 0  -0.7076253581162534 -0.8803439094224437 0  -0.8778089002295137 -0.5106896447504627 0  -0.3860184984222981 0.530566778071246 0  0.6109900617121508 0.1128453077697081 0  0.3896945134930274 -0.1915382873255086 0  0.7605656944697778 -0.06822134873122943 0  0.3576151269893478 0.5948388411612135 0  -0.5689902680792265 -0.5143596830118065 0  0.6262446286847614 -0.5735657901943212 0  0.2030558252325225 -0.5625263842513452 0  0.6123273142928579 0.7407533260723429 0  0.4016460890123554 -0.3042863223111857 0  -0.59039693199147 0.7578418819188018 0  0.7276932493917544 -0.3705808024528924 0  0.5222536818742854 -0.4713886230400014 0  -0.5101986527137737 0.8848365765607674 0  0.510560172809238 0.5356013299918891 0  -0.3603569195756083 0.75823710606415 0  0.1967279277813232 0.728226870058472 0  -0.6086880986371127 0.1545624071548516 0  -0.38105366729386 0.1511189987807864 0  -0.2944659463671584 -0.7359061804869591 0  0.5060729154966499 -0.3475227845833823 0  -0.09281616240412746 -0.06197858250969457 0  0.7649739583333334 0.6673177083333334 0  0.7628906249999999 0.890234375 0  -0.2666864184909611 0.2585504071132311 0  0.3635064892129658 0.3878003602709461 0  -0.2339409722222222 0.8901937905844155 0  -0.1718792125974916 -0.8957733325456778 0  0.1001768566329531 0.4023510017391879 0  0.3120260172693757 -0.4540546875576884 0  0.7804062804433681 0.1896628610854537 0  0.4087715451998049 0.187961780041608 0  -0.1584963477271457 0.5451611892421655 0  -0.8926817849258324 0.463022006336401 0  0.2338091473445219 -0.07576267331277289 0  0.08171112182813692 -0.2349087687359925 0  0.04635385178956847 -0.1044635073718474 0  -0.4377391632114205 -0.6448874471423088 0  -0.1907678351227189 0.6480215912813945 0  0.300605946475244 0.4741444604171038 0  -0.2145033720757486 -0.06751709909419711 0  0.6069191921170397 -0.005492331448357812 0  0.0214718770761248 0.6032397936031719 0  0.5476675683364878 0.8992752415326501 0  0.4387475014316537 0.9093708953002239 0  -0.4932997685306436 -0.4381009159993523 0  0.2515197695339056 -0.1791673369138964 0  -0.7291666666666667 -0.6088789682539681 0  -0.9166666666666667 -0.6875 0  0.620579540363709 -0.2122431523583302 0  -0.484950136419973 0.6719440339397442 0  0.2857044415400258 0.0137589173127316 0  -0.8945708364098356 -0.288306105327986 0  0.4043102720140535 0.7842914560451557 0  0.04123256238752064 -0.9026968245801402 0  0.2003676884403109 -0.9091888601740487 0  0.1068775558538842 -0.7373377130403223 0  -0.4804566783514427 -0.1763307203045643 0  0.108286342087769 -0.3993789328997278 0  -0.191883080105361 -0.3640821726430649 0  -0.07025064492006244 0.2984876656890053 0  -0.7039324641409584 0.788312126296613 0  -0.7311286585775438 0.8932502354831682 0  0.5171409396884947 0.1503852691889257 0  0.4229392823658633 -0.003216522184234835 0  -0.5621736087218259 -0.919558629836806 0  -0.626474064879544 -0.7266572613636506 0  0.2446828746617422 0.2867616783302419 0  0.1759429608742923 0.4776611759306416 0  -0.3468240303741654 -0.5260416435617549 0  -0.7465808808425306 0.4069574477998361 0  -0.7819962170660292 0.2802441065650652 0  -0.3742623214119594 -0.8547800509641984 0  0.1014498009713561 0.8506721983266377 0  0.4285217620918213 -0.5230190595570253 0  0.4091738370487775 -0.6256346204225141 0  0.78125 0.46875 0  0.90625 0.53125 0  -0.4791801348852565 0.2553992655702126 0  0.7843318610782772 -0.7086046956885941 0  0.8909728264971901 -0.7355183796514634 0  0.7041908166528879 -0.7830649143180282 0  0.731182135
[...]
<PointData  Vectors="f_21"> 
<DataArray  type="Float64"  Name="f_21"  NumberOfComponents="3" format="ascii">-1.6859921861423066e-07 -5.5071651333628209e-07 0.0000000000000000e+00  -1.6859921861423066e-07 -5.5071651333628209e-07 0.0000000000000000e+00  -1.6859921861423066e-07 -5.5071651333628209e-07 0.0000000000000000e+00  -1.6859921861423066e-07 -5.5071651333628209e-07 0.0000000000000000e+00  -7.0090246036762666e-08 -8.2058426049915207e-07 0.0000000000000000e+00  9.5445921741112746e-08 -1.5792085229566682e-07 0.0000000000000000e+00  -7.0090246036762666e-08 -8.2058426049915207e-07 0.0000000000000000e+00  9.5445921741112746e-08 -1.5792085229566682e-07 0.0000000000000000e+00  -5.7791304422149562e-07 9.6090711405568009e-07 0.0000000000000000e+00  -2.9070556986922489e-02 -2.8526048908618404e-07 0.0000000000000000e+00  -9.1468807882130378e-08 2.9070767517722328e-02 0.0000000000000000e+00  -9.1468807882130378e-08 2.9070767517722328e-02 0.0000000000000000e+00  2.9071385684664629e-02 1.1778090273359424e-08 0.0000000000000000e+00  -2.9070556986922489e-02 -2.8526048908618404e-07 0.0000000000000000e+00  -2.6533652767329899e-07 -2.9070372453888361e-02 0.0000000000000000e+00  2.9071385684664629e-02 1.1778090273359424e-08 0.0000000000000000e+00  -2.6533652767329899e-07 -2.9070372453888361e-02 0.0000000000000000e+00  7.2679690980783068e-03 7.2675018824149094e-03 0.0000000000000000e+00  -7.2684681682115108e-03 -7.2675991540644734e-03 0.0000000000000000e+00  2.0555894004512097e-02 3.0577198423042109e-07 0.0000000000000000e+00  -2.8261757847809217e-08 2.0556307556926178e-02 0.0000000000000000e+00  2.7512250721707047e-04 -2.8354967502144938e-02 0.0000000000000000e+00  -2.8296169317811714e-02 -1.5024517176910360e-04 0.0000000000000000e+00  -1.0277861964876348e-02 1.0277879556438831e-02 0.0000000000000000e+00  1.0277635249520294e-02 -1.0278079133605556e-02 0.0000000000000000e+00  -1.3981783561324006e-02 1.5068415966872858e-02 0.0000000000000000e+00  1.0941191821218986e-02 -1.8129710652761036e-02 0.0000000000000000e+00  -1.5068968280503543e-02 1.3981342877947306e-02 0.0000000000000000e+00  2.5062963643192535e-02 -3.8835810593053363e-03 0.0000000000000000e+00  -1.3036659760592350e-02 -1.3036021454040089e-02 0.0000000000000000e+00  1.3036398554048961e-02 1.3036093314208104e-02 0.0000000000000000e+00  2.9053764474618426e-03 2.5174847397967902e-02 0.0000000000000000e+00  -1.5513567834087680e-02 -1.2688788045394073e-02 0.0000000000000000e+00  -1.2027204034083350e-02 -1.6026224628165373e-02 0.0000000000000000e+00  2.4627538954546512e-02 9.8837442491510178e-04 0.0000000000000000e+00  -8.6247928069264276e-03 -1.9455418065445075e-02 0.0000000000000000e+00  7.7006239316485771e-03 -1.7839102715357897e-02 0.0000000000000000e+00  1.1686402323312417e-02 -1.5933928618091685e-02 0.0000000000000000e+00  -1.2558919175036976e-02 1.5273001899243082e-02 0.0000000000000000e+00  1.8991263093551147e-02 7.8665475098406417e-03 0.0000000000000000e+00  1.7845304608345734e-02 9.3556878283239300e-03 0.0000000000000000e+00  2.3765236397542207e-03 2.2824664472634960e-02 0.0000000000000000e+00  1.0697553362706918e-07 2.0556378182395349e-02 0.0000000000000000e+00  -2.0555942472173499e-02 2.2052288600441080e-07 0.0000000000000000e+00  2.0556233792782510e-02 -2.0335169268557460e-07 0.0000000000000000e+00  -3.5482815918860401e-07 -2.0555875160121265e-02 0.0000000000000000e+00  -2.9124963144963722e-03 -2.0720218180934689e-02 0.0000000000000000e+00  3.0961048843638700e-03 -1.4243942786509985e-02 0.0000000000000000e+00  -8.4286901220433346e-03 9.1114257750779385e-04 0.0000000000000000e+00  5.6951269503738754e-08 -2.0556245270043599e-02 0.0000000000000000e+00  -1.9500273151955216e-07 2.0556270245591458e-02 0.0000000000000000e+00  1.0697553362706918e-07 2.0556378182395349e-02 0.0000000000000000e+00  -3.5482815918860401e-07 -2.0555875160121265e-02 0.0000000000000000e+00  -2.0555606556909030e-02 -2.8347479124600690e-07 0.0000000000000000e+00  2.0556039195436100e-02 1.7877928230524927e-07 0.0000000000000000e+00  -2.0555606556909030e-02 -2.8347479124600690e-07 0.0000000000000000e+00  -1.9500273151955216e-07 2.0556270245591458e-02 0.0000000000000000e+00  -2.0555942472173499e-02 2.2052288600441080e-07 0.0000000000000000e+00  2.0556233792782510e-02 -2.0335169268557460e-07 0.0000000000000000e+00  5.6951269503738754e-08 -2.0556245270043599e-02 0.0000000000000000e+00  2.0556039195436100e-02 1.7877928230524927e-07 0.0000000000000000e+00  5.9077596271078434e-03 2.0220917388899917e-02 0.0000000000000000e+00  -1.9628661585956754e-02 -4.2704175629591119e-03 0.0000000000000000e+00  -2.3910111316681526e-02 -4.9179328319551583e-03 0.0000000000000000e+00  1.3195112173952075e-02 -4.7561351593029995e-03 0.0000000000000000e+00  -2.9777175899719214e-04 -2.5707098523996549e-02 0.0000000000000000e+00  -1.5851865884092418e-03 2.2044502253869648e-02 0.0000000000000000e+00  -1.2237977495442098e-02 3.7989703326092531e-03 0.0000000000000000e+00  -9.5262187620272969e-04 2.2592212979619643e-02 0.0000000000000000e+00  -1.8757030944558294e-02 -1.5840699553585120e-04 0.0000000000000000e+00  1.1938853660525790e-02 1.1715994860952730e-02 0.0000000000000000e+00  2.3027817342919817e-02 3.1700801801563196e-03 0.0000000000000000e+00  -2.5825141147592611e-02 2.9873827226613915e-03 0.0000000000000000e+00  2.3061223464680661e-02 -5.9011380412908460e-03 0.0000000000000000e+00  -2.3259197178993659e-02 5.5620544551998061e-03 0.0000000000000000e+00  -4.4781944976389956e-03 2.3619808805469888e-02 0.0000000000000000e+00  4.8163335009396230e-03 3.1380067152910556e-03 0.0000000000000000e+00  2.3706691451837406e-02 -3.1501990873272576e-03 0.0000000000000000e+00  1.4255898541135046e-02 -1.4256206788114976e-02 0.0000000000000000e+00  5.0207913163979130e-04 -2.3222451805757036e-02 0.0000000000000000e+00  1.3066833310630487e-02 -9.7194990130850048e-03 0.0000000000000000e+00  -1.3211395404163287e-02 1.3211450117340229e-02 0.0000000000000000e+00  2.7276864429867834e-02 1.7907898403415345e-03 0.0000000000000000e+00  1.2134497539795859e-04 2.8707443500293618e-02 0.0000000000000000e+00  1.3483906768713366e-02 1.4928451121105309e-02 0.0000000000000000e+00  -1.0593684463820277e-03 -8.0935678874622871e-03 0.0000000000000000e+00  -4.7831383618428961e-03 -2.4248498788659506e-02 0.0000000000000000e+00  -1.3308923123487155e-02 -1.3308602681747980e-02 0.0000000000000000e+00  1.7598037988101076e-03 6.6792108102136181e-03 0.0000000000000000e+00  2.4248782972803258e-02 4.7829141965526839e-03 0.0000000000000000e+00  1.3301614031565415e-02 1.3353547541456472e-02 0.0000000000000000e+00  -2.4248465274495326e-02 -4.7826067019832398e-03 0.0000000000000000e+00  -1.9121914152754559e-02 2.9898401954300820e-03 0.0000000000000000e+00  -2.4361864409642359e-02 2.6873476089838439e-03 0.0000000000000000e+00  7.4273441695593334e-03 4.5715555936848588e-03 0.0000000000000000e+00  -1.0196356988438687e-02 1.0740147544612159e-02 0.0000000000000000e+00  -1.0740361086971966e-02 1.0196837935231630e-02 0.0000000000000000e+00  1.0199851678416293e-02 -1.0722090306611885e-02 0.0000000000000000e+00  1.0205297040515166e-02 1.0691867521079451e-02 0.0000000000000000e+00  4.3815246026520597e-03 2.4687187721866833e-02 0.0000000000000000e+00  -2.0243231486338602e-02 6.7209480491287445e-03 0.0000000000000000e+00  -2.0411689542097242e-02 -4.1442280395194882e-03 0.0000000000000000e+00  -1.5793287363132810e-03 1.5007782026614160e-02 0.0000000000000000e+00  1.4914142974566238e-02 -4.9814779720206018e-03 0.0000000000000000e+00  -1.9135630269428335e-02 -1.2586024369012844e-03 0.0000000000000000e+00  -2.6857317084993247e-02 -1.8354683805610901e-07 0.0000000000000000e+00  -4.5408405958755034e-03 -2.2080285670828974e-02 0.0000000000000000e+00  9.4463777964791523e-03 1.9365496192467985e-02 0.0000000000000000e+00  6.9794501592738860e-08 -2.6858439012295066e-02 0.0000000000000000e+00  5.2193105007026499e-03 -1.6765013168671527e-02 0.0000000000000000e+00  -1.1124531365523618e-02 -9.0683687093032907e-08 0.0000000000000000e+00  -1.4281740126466748e-02 -1.1286057052319625e-02 0.0000000000000000e+00  1.2095446942165223e-03 -2.4200500924333325e-02 0.0000000000000000e+00  1.5448031290460209e-02 -1.1463505799903465e-02 0.0000000000000000e+00  2.6618230286357368e-02 -2.3248752527212750e-03 0.0000000000000000e+00  1.4239947195265527e-02 -3.9836504091391237e-03 0.0000000000000000e+00  -4.4104294474213192e-03 2.4488220162307488e-02 0.0000000000000000e+00  -2.9261077015385077e-03 -1.2288850053008045e-02 0.0000000000000000e+00  -3.8024686691204542e-03 2.4836516178449976e-02 0.0000000000000000e+00  1.1621257629763166e-03 -2.7259225126724310e-02 0.0000000000000000e+00  -5.5081312390586629e-03 2.3464321696250050e-02 0.0000000000000000e+00  1.0483547704785873e-07 -2.6858750983640746e-02 0.0000000000000000e+00  -2.1563254224501523e-03 -1.3972154996130293e-02 0.0000000000000000e+00  2.8709695823994734e-02 2.5425771744335643e-04 0.0000000000000000e+00  1.1124513671799612e-02 1.7907292171832471e-07 0.0000000000000000e+00  -9.2838172540863906e-03 1.2210771110317247e-02 0.0000000000000000e+00  -8.0211116902211450e-03 -1.8256050358857155e-02 0.0000000000000000e+00  -8.7029809036336687e-03 -8.9351706978754147e-03 0.0000000000000000e+00  -3.9214815173816410e-08 -1.1125037616117975e-02 0.0000000000000000e+00  -1.0937066304772291e-02 -1.5187448186059568e-02 0.0000000000000000e+00  8.5506129175562939e-03 -1.9941025200613558e-02 0.0000000000000000e+00  1.3704343012053167e-02 9.8371209486358170e-03 0.0000000000000000e+00  -1.0377276062631273e-02 1.6483300209585092e-02 0.0000000000000000e+00  1.0818676779644483e-03 -2.5848704160427005e-02 0.0000000000000000e+00  1.7105188424580493e-02 -1.1784725550160788e-02 0.0000000000000000e+00  -2.6886852349343376e-02 -1.6526306624099800e-04 0.0000000000000000e+00  -2.4403281785617424e-02 -4.4234701363908262e-03 0.0000000000000000e+00  -2.1624481280049842e-02 6.5021110803902002e-03 0.0000000000000000e+00  6.5410661681408388e-03 -2.1604137850542535e-02 0.0000000000000000e+00  8.7604646838937931e-03 1.9580296778358524e-02 0.0000000000000000e+00  2.0735125361235760e-02 -3.0761167970225770e-04 0.0000000000000000e+00  -2.1674203682007437e-07 1.1124481644107979e-02 0.0000000000000000e+00  1.1142470810000688e-02 5.0166670387057589e-03 0.0000000000000000e+00  2.6341083991359236e-02 2.1706293234124941e-03 0.0000000000000000e+00  1.9637656654442934e-02 8.4484935117117351e-03 0.0000000000000000e+00  -9.1103965105915169e-08 -1.1124229558687280e-02 0.0000000000000000e+00  -1.7483003365016413e-02 -9.7374872125372304e-03 0.0000000000000000e+00  -5.7695356736556019e-03 -2.3188070271007229e-02 0.0000000000000000e+00  2.2705418685591668e-02 -9.0209130908554264e-06 0.0000000000000000e+00  -1.9607783446228523e-02 -3.5486843998106840e-03 0.0000000000000000e+00  2.1143595404949679e-02 7.7809054667750729e-03 0.0000000000000000e+00  -1.4985608609221129e-02 1.3627569927696976e-02 0.0000000000000000e+00  1.6765680715518958e-07 2.6857900197568021e-02 0.0000000000000000e+00  5.8751929324218233e-03 -2.3194781249682276e-02 0.0000000000000000e+00  2.0708651064545745e-02 -7.2617383303266048e-03 0.0000000000000000e+00  -9.7774446576874806e-03 6.3327979999368818e-03 0.0000000000000000e+00  -8.5834285734502410e-03 1.4855823418776731e-02 0.0000000000000000e+00  -3.6524800669904267e-03 -1.9621002938536407e-02 0.0000000000000000e+00  6.9794501592738860e-08 -2.6858439012295066e-02 0.0000000000000000e+00  4.1259685912221482e-04 2.8018794947394621e-02 0.0000000000000000e+00  2.2626201525913145e-02 -5.8867053202265388e-03 0.0000000000000000e+00  -2.8569234701294331e-02 -4.9154347242689651e-05 0.0000000000000000e+00  -2.4465367409858226e-02 -4.5949062833818928e-03 0.0000000000000000e+00  -2.1929178122426857e-02 6.6032756843344030e-03 0.0000000000000000e+00  -1.6201620628405008e-02 -9.3601780682527717e-03 0.0000000000000000e+00  3.1282245466273242e-07 1.1124244325404691e-02 0.0000000000000000e+00  1.1124513671799612e-02 1.7907292171832471e-07 0.0000000000000000e+00  -1.1125629545504861e-02 7.5214728064561200e-09 0.0000000000000000e+00  -9.1103965105915169e-08 -1.1124229558687280e-02 0.0000000000000000e+00  -5.1771860594862246e-04 -1.1631721402631504e-02 0.0000000000000000e+00  5.3125097397641301e-03 -2.0146201160295075e-02 0.0000000000000000e+00  -9.4463925886702094e-03 -1.9382540272056482e-02 0.0000000000000000e+00  -1.8690300089698811e-03 1.7837034338130046e-02 0.0000000000000000e+00  9.8443841567657456e-04 2.6641925433570794e-02 0.0000000000000000e+00  -2.2459806243353077e-03 1.0857783603242138e-02 0.0000000000000000e+00  3.1282245466273242e-07 1.1124244325404691e-02 0.0000000000000000e+00  -1.1125629545504861e-02 7.5214728064561200e-09 0.0000000000000000e+00  1.6524619381956034e-02 -1.1755688606665160e-03 0.0000000000000000e+00  1.0915274618597096e-02 -5.8855375487784694e-03 0.0000000000000000e+00  2.1468041821723897e-02 7.1169751109733618e-03 0.0000000000000000e+00  -2.9155552040900611e-03 -2.6036784652948883e-02 0.0000000000000000e+00  -9.5340645787643811e-04 -2.7978280086578947e-02 0.0000000000000000e+00  -1.0973334352076732e-02 -7.0419242908920272e-03 0.0000000000000000e+00  -1.1443480915263000e-02 -3.2158645377209835e-04 0.0000000000000000e+00  -1.0345226010067347e-06 1.1135209055466522e-02 0.0000000000000000e+00  1.6765680715518958e-07 2.6857900197568021e-02 0.0000000000000000e+00  -3.5503497208990864e-07 2.6858015884012890e-02 0.0000000000000000e+00  1.1124611727737790e-02 2.4412368034339875e-07 0.0000000000000000e+00  -2.1674203682007437e-07 1.1124481644107979e-02 0.0000000000000000e+00  -2.6857317084993247e-02 -1.8354683805610901e-07 0.0000000000000000e+00  -1.1124531365523618e-02 -9.0683687093032907e-08 0.0000000000000000e+00  -2.6857616129600172e-02 -1.6497879065822397e-07 0.0000000000000000e+00  1.0483547704785873e-07 -2.6858750983640746e-02 0.0000000000000000e+00  -3.9214815173816410e-08 -1.1125037616117975e-02 0.0000000000000000e+00  -3.5503497208990864e-07 2.6858015884012890e-02 0.0000000000000000e+00  -2.6857616129600172e-02 -1.6497879065822397e-07 0.0000000000000000e+00  1.1124611727737790e-02 2.4412368034339875e-07 0.0000000000000000e+00  2.6857543570188266e-02 4.6556678759029984e-08 0.0000000000000000e+00  2.6858107815760004e-02 8.1352111553719048e-08 0.0000000000000000e+00  2.6857543570188266e-02 4.6556678759029984e-08 0.0000000000000000e+00  2.6858107815760004e-02 8.1352111553719048e-08 0.0000000000000000e+00  1.0188029030522461e-02 1.3279331936189347e-02 0.0000000000000000e+00  -1.9821213957885671e-02 4.1821139249467064e-03 0.0000000000000000e+00  1.8910571062464875e-02 -7.8040241991135049e-03 0.0000000000000000e+00  1.0477601799910341e-02 -1.0477617268773403e-02 0.0000000000000000e+00  1.3781512601702031e-02 -1.2511392652465658e-02 0.0000000000000000e+00  3.1900084800627355e-03 -7.7962187363471557e-03 0.0000000000000000e+00  1.5352442952617631e-02 4.4013371548333223e-03 0.0000000000000000e+00  -6.4779893479447537e-03 2.1489186910652460e-02 0.0000000000000000e+00  -2.6939897002375136e-02 3.6505610652327132e-04 0.0000000000000000e+00  -1.0142008623842456e-02 2.6103995346120545e-03 0.0000000000000000e+00  3.4477311142185729e-03 2.5622053482362506e-02 0.0000000000000000e+00  5.5884210132680339e-03 2.2539723693860786e-02 0.0000000000000000e+00  -4.5149085036051790e-03 1.9407935732343232e-02 0.0000000000000000e+00  -1.2020235731705922e-02 -7.6937551022767687e-03 0.0000000000000000e+00  -6.2447280947776742e-03 1.2803752361516853e-03 0.0000000000000000e+00  -1.0931558204573024e-02 -6.1419609637148390e-03 0.0000000000000000e+00  2.2904655105348108e-02 -3.3785784995864110e-03 0.0000000000000000e+00  7.3076160069343562e-03 -1.8721260290224646e-02 0.0000000000000000e+00  7.2216190854853821e-03 1.5974653256997356e-02 0.0000000000000000e+00  5.6162051550492902e-03 2.0212668567902842e-02 0.0000000000000000e+00  -1.7511966821701683e-02 8.6785505182303442e-03 0.0000000000000000e+00  -2.0234651000755870e-03 2.6032300462050834e-03 0.0000000000000000e+00  3.2904574406291076e-04 2.7174126609344446e-02 0.0000000000000000e+00  9.5826201714996817e-04 -3.2433368728535354e-03 0.0000000000000000e+00  -8.5028520979112572e-03 1.9084707786377456e-02 0.0000000000000000e+00  -1.7859303911767179e-02 -1.1069267347922566e-02 0.0000000000000000e+00  4.5433195258627644e-03 -2.4225266956352444e-02 0.0000000000000000e+00  -4.8509560176714268e-03 -2.4071354505295454e-02 0.0000000000000000e+00  1.2905064118785264e-02 1.5674934948041085e-02 0.0000000000000000e+00  -4.9195356954746274e-04 1.3396224207990805e-02 0.0000000000000000e+00  5.3872284306774468e-03 -8.1995189222164658e-03 0.0000000000000000e+00  1.8597043376528562e-02 -9.8181772300080100e-03 0.0000000000000000e+00  7.2244070205000430e-03 -1.8547302060922057e-02 0.0000000000000000e+00  -1.4118335342931601e-02 -1.4861026660296940e-02 0.0000000000000000e+00  -1.1343852732803890e-02 9.1275255169680561e-03 0.0000000000000000e+00  -7.2932954830999611e-03 1.8344581571545782e-02 0.0000000000000000e+00  8.0189877560300060e-03 1.4151255198081476e-02 0.0000000000000000e+00  -2.6351683635371749e-02 2.7179789317449883e-03 0.0000000000000000e+00  1.6018785859508843e-02 3.4724988355465140e-03 0.0000000000000000e+00  1.2583573473079774e-02 1.5313566093178951e-02 0.0000000000000000e+00  -4.5751202171453289e-03 2.3163061829413044e-02 0.0000000000000000e+00  -2.5284075454216407e-02 1.9635656324067169e-03 0.0000000000000000e+00  2.7249390878779037e-02 -1.1149943355661465e-03 0.0000000000000000e+00  5.0870114799004967e-03 1.8934656140231571e-02 0.0000000000000000e+00  1.8917826873269820e-02 5.4603317766445903e-03 0.0000000000000000e+00  9.2710967848686696e-03 3.9930777670948844e-03 0.0000000000000000e+00  5.0747671663059169e-03 1.2536246366076222e-02 0.0000000000000000e+00  -2.1455533578410235e-02 7.3538463026915314e-03 0.0000000000000000e+00  -1.6985989309726755e-02 1.9106944142352304e-03 0.0000000000000000e+00  4.7819255673213481e-03 -1.7734134115576616e-02 0.0000000000000000e+00  -1.6582200413010244e-04 2.7441906492563235e-02 0.0000000000000000e+00  -2.7492204604391442e-02 -6.2462950486357675e-04 0.0000000000000000e+00  1.3495954756707271e-03 -2.7318321861003452e-02 0.0000000000000000e+00  -1.5618183960390720e-03 -2.7385396106934270e-02 0.0000000000000000e+00  6.0050512093018057e-04 -5.6166188221038619e-03 0.0000000000000000e+00  1.0916598281647906e-02 1.7467604999401649e-02 0.0000000000000000e+00  -1.8057092222371719e-02 7.3310281922504125e-03 0.0000000000000000e+00  -2.3348101509428943e-02 4.1800829388015494e-03 0.0000000000000000e+00  -6.6491610559615555e-03 2.1224435996257483e-02 0.0000000000000000e+00  -1.1783043282175233e-03 1.4933786684143859e-02 0.0000000000000000e+00  -7.8331096386613085e-04 2.2706681076396448e-02 0.0000000000000000e+00  -2.1631635526828150e-02 -5.8342962128812457e-03 0.0000000000000000e+00  -5.3973022849404138e-03 -2.1631790056965628e-02 0.0000000000000000e+00  8.6753855536088713e-03 -3.5805695732532465e-03 0.0000000000000000e+00  6.6138582174082592e-03 -1.6422696745187121e-02 0.0000000000000000e+00  2.0164974316103666e-02 -6.4982884605555621e-03 0.0000000000000000e+00  9.3880762596159262e-04 -2.4676954309870502e-02 0.0000000000000000e+00  2.6046370138840907e-02 3.0151742195282552e-03 0.0000000000000000e+00  2.1796303491991659e-02 -6.8259665938147258e-03 0.0000000000000000e+00  -2.2868714743935335e-02 -3.7646960399841962e-03 0.0000000000000000e+00  1.0723005345812525e-02 1.8338967471067145e-02 0.0000000000000000e+00  6.3527073268353097e-03 2.0526614375194256e-02 0.0000000000000000e+00  7.1227302009329945e-04 2.5848716337690862e-02 0.0000000000000000e+00  7.0726907252098751e-05 2.8221191598968447e-02 0.0000000000000000e+00  -1.4104299790300783e-03 2.7611998821527321e-02 0.0000000000000000e+00  -8.5155012662679348e-03 1.7515092743224422e-02 0.0000000000000000e+00  -1.6380137566681784e-02 1.2548541566701920e-02 0.0000000000000000e+00  -2.4680579417958176e-02 1.0702317679928135e-03 0.0000000000000000e+00  1.3410438834232557e-02 2.1056355391921881e-03 0.0000000000000000e+00  1.947161529