<?xml version="1.0"?>
<VTKFile type="UnstructuredGrid"  version="0.1"  >
<UnstructuredGrid>
<Piece  NumberOfPoints="5315" NumberOfCells="10372">
<Points>
<DataArray  type="Float64"  NumberOfComponents="3"  format="ascii">-1 -1 0  1 -1 0  1 1 0  -1 1 0  0 -1 0  1 0 0  0 1 0  -1 0 0  0 0 0  -1 -0.5 0  -0.5 -1 0  -0.5 1 0  -1 0.5 0  1 -0.5 0  0.5 -1 0  1 0.5 0  0.5 1 0  0.4166666666666666 -0.4166666666666667 0  -0.4166666666666667 0.4166666666666667 0  -0.25 -0.5 0  0.5 0.25 0  -0.4861111111111112 -0.06944444444444445 0  0.0732758620689655 0.507183908045977 0  -0.625 -0.625 0  0.625 0.625 0  0.7380952380952381 -0.25 0  -0.7099116161616161 0.2105429292929293 0  -0.25 0.7380952380952381 0  0.105392156862745 -0.6348039215686275 0  0.6770833333333334 -0.6770833333333333 0  -0.6770833333333334 0.6770833333333334 0  0.3472222222222222 -0.06944444444444446 0  -0.7264957264957265 -0.3044871794871795 0  0.3141940982507127 0.7297313660835709 0  0.02049587951122483 -0.3227479397556124 0  -0.2690972222222223 0.1475694444444444 0  0.3859500089908372 -0.7274430156831472 0  -0.2228477945123298 -0.1761765495248019 0  0.2182539682539683 0.1884920634920635 0  0.75 0.375 0  -0.145442219440968 -0.7602211097204841 0  0.7088913690476191 0.0427827380952381 0  -0.75 -1 0  -1 -0.75 0  1 0.75 0  0.75 1 0  -0.7439982703698937 -0.04614153195464455 0  -0.4609235096577606 -0.3356498099556895 0  0.4063134471431929 0.4895621842856023 0  0.25 -1 0  -0.25 -1 0  -0.75 1 0  0.75 -1 0  -1 -0.25 0  -1 0.25 0  1 -0.25 0  -0.25 1 0  1 -0.75 0  -1 0.75 0  0.25 1 0  1 0.25 0  -0.4041423272138783 -0.7597141090712928 0  0.06500839607911253 0.7578103030529481 0  -0.1572801182352047 0.3838997021864289 0  -0.6528005242053915 0.4409494757946086 0  -0.4930160984848485 0.1544744318181818 0  -0.4732142857142858 0.7752976190476191 0  0.6398809523809523 -0.4538690476190476 0  0.5166054117396399 -0.2161233620965164 0  -0.002273787244753427 0.2232363985975174 0  0.1500564496765022 -0.1524955293952667 0  0.2016720420046758 -0.4410343282803009 0  -0.08495178036419618 0.6274139771124571 0  -0.8367311471133162 0.3642591720794645 0  -0.8333333333333334 -0.625 0  -0.594323836800685 -0.8231079456002283 0  -0.4466957714776065 -0.5349126855671806 0  0.8125 0.5625 0  0.78125 0.78125 0  0.5091392650016769 0.7947130883338923 0  0.125 -0.8382681931833136 0  -0.8184523809523809 -0.8184523809523809 0  -0.07781530426104531 -0.5819319697006881 0  0.5085055196703295 0.04967610411902112 0  0.2918471072074933 -0.276017202318847 0  0.5120763537765269 -0.5898771553229597 0  0.625 -0.8585349462365591 0  0.8158532234335381 -0.8158532234335381 0  -0.5198088446315396 0.5739411553684605 0  -0.8585349462365591 0.625 0  -0.8150493805516597 0.8156205699829586 0  0.8585349462365591 -0.625 0  -0.2688268348649726 0.5439331383603209 0  0.8242100426758139 -0.4436043596336612 0  0.5833756314287952 0.4479378157143976 0  0.8690476190476191 -0.125 0  -0.125 0.8690476190476191 0  -0.8692745600729823 0.125 0  0.8696725120759167 0.125 0  -0.625 0.8711516477451908 0  0.2339522463269718 0.3879558377955778 0  0.2453709502295031 0.5655822922838026 0  0.1730610651637797 0.02021709580868947 0  0.3245402594056757 -0.5644672020485209 0  -0.7291666666666666 -0.4816595441595442 0  -1 -0.375 0  -0.5811140848639904 -0.2127276307675001 0  0.673332592838314 0.2158348143233718 0  0.375 1 0  -0.5714768890989919 0.2985103444040069 0  -1 -0.125 0  -0.8453692574786325 -0.1875 0  -0.3144549134065865 -0.02408675326008025 0  -0.2898414972096258 -0.3336092734780093 0  -0.1075052092206287 -0.4224330421314983 0  -0.05043970703604117 -0.1652278959397459 0  0.6459672950297897 -0.1113415301525317 0  0.4645210271029513 0.6398480556579343 0  0.3512863754411909 0.0937979496253573 0  -0.6063160985568274 0.03891469652249891 0  -0.3428819444444445 0.8690476190476191 0  0.625 1 0  -0.1602164796159982 0.02697860906625157 0  0.04648110064133829 -0.4808416424239687 0  1 0.875 0  -0.3836102479201657 0.6484936449177356 0  -0.3776011723096096 0.263078478984336 0  -0.6024978259969829 -0.3949628096211138 0  0.125 1 0  0.2010781308272777 0.8456221018461906 0  0.2822509696388829 -0.845902544691141 0  -0.3285533674953515 -0.6289773550938936 0  0.3461306793221754 0.278777492464833 0  0.4737475672408696 -0.8508448959534423 0  0.2384632828836344 -0.7029523187242811 0  -0.004777287059791593 0.3759269695907358 0  -0.8499735021850066 -0.3912320205328522 0  0.1222536293721587 0.2963971539625205 0  -0.3769456520999688 -0.203572526805711 0  -0.2749617205755651 -0.8464290792698902 0  0.004805888512766143 -0.747174355248311 0  -0.125 -1 0  -0.06001061822252458 -0.8724007765244854 0  0.875 0.4375 0  0.854421179608893 0.271342359217786 0  0.875 1 0  -0.1499861095763589 0.2358309656934888 0  0.3381943639137225 0.8663061796405532 0  -0.7853090110442228 0.4998412775277108 0  0.7398165998560814 -0.5535192694951373 0  0.1580042122341573 -0.3100246140259917 0  -0.7291666666666667 -0.7142857142857142 0  -0.375 -1 0  0.6483368386154684 0.8514905990110488 0  -0.1295370103291928 -0.2826118305021242 0  0.07458201853700455 0.1123894386563915 0  0.6146465857036327 -0.3161203659316075 0  0.5551898493894731 -0.740296118159085 0  0.375 -1 0  0.482702798370208 -0.084133350091034 0  0.87890625 0.68359375 0  -0.05917195534525846 0.4971092425697621 0  0.1260710309213975 0.6343750312956699 0  0.8690476190476191 -0.3077066815262848 0  -0.2912010232560567 0.3668168386732139 0  -0.875 1 0  -1 0.875 0  1 -0.875 0  0.875 -1 0  -0.8689564281364567 -0.006189266075306407 0  -0.7449425635110547 0.08458938160051771 0  -0.7150266761936593 -0.1739444581417552 0  -0.5260034831318311 -0.711099823962112 0  -0.4724626808827322 -0.871722230709409 0  0.4734436795977052 0.377714794132168 0  -0.875 -1 0  -1 -0.875 0  0.6927189078571988 0.5156567235715964 0  -0.3742497615796874 -0.4296005251260107 0  -0.1969436423297711 -0.6387157229772615 0  -0.6179496409766825 -0.08933356056510935 0  -0.424405057115988 0.04452428810878029 0  -0.08479048335844169 0.1279607007132633 0  0.003830300099055113 0.8712085230656206 0  0.8748778838820267 -1.379218479898026e-05 0  -0.375 1 0  -0.625 1 0  1 0.125 0  -0.125 1 0  1 -0.375 0  1 -0.125 0  1 -0.625 0  0.625 -1 0  0.125 -1 0  -0.625 -1 0  -1 -0.625 0  -1 0.125 0  -1 0.375 0  -1 0.625 0  1 0.375 0  1 0.625 0  0.6325660748712082 0.3335187599557389 0  -0.06420945895056573 0.7549874027425891 0  -0.8769015540914771 0.2478802253893416 0  0.871875 0.871875 0  -0.6868091492840067 0.3270978624973681 0  -0.5363597469565949 0.412994850055505 0  -0.6803734992638302 0.5574295000651103 0  -0.7076253581162534 -0.8803439094224437 0  -0.8778089002295137 -0.5106896447504627 0  -0.3860184984222981 0.530566778071246 0  0.6109900617121508 0.1128453077697081 0  0.3896945134930274 -0.1915382873255086 0  0.7605656944697778 -0.06822134873122943 0  0.3576151269893478 0.5948388411612135 0  -0.5689902680792265 -0.5143596830118065 0  0.6262446286847614 -0.5735657901943212 0  0.2030558252325225 -0.5625263842513452 0  0.6123273142928579 0.7407533260723429 0  0.4016460890123554 -0.3042863223111857 0  -0.59039693199147 0.7578418819188018 0  0.7276932493917544 -0.3705808024528924 0  0.5222536818742854 -0.4713886230400014 0  -0.5101986527137737 0.8848365765607674 0  0.510560172809238 0.5356013299918891 0  -0.3603569195756083 0.75823710606415 0  0.1967279277813232 0.728226870058472 0  -0.6086880986371127 0.1545624071548516 0  -0.38105366729386 0.1511189987807864 0  -0.2944659463671584 -0.7359061804869591 0  0.5060729154966499 -0.3475227845833823 0  -0.09281616240412746 -0.06197858250969457 0  0.7649739583333334 0.6673177083333334 0  0.7628906249999999 0.890234375 0  -0.2666864184909611 0.2585504071132311 0  0.3635064892129658 0.3878003602709461 0  -0.2339409722222222 0.8901937905844155 0  -0.1718792125974916 -0.8957733325456778 0  0.1001768566329531 0.4023510017391879 0  0.3120260172693757 -0.4540546875576884 0  0.7804062804433681 0.1896628610854537 0  0.4087715451998049 0.187961780041608 0  -0.1584963477271457 0.5451611892421655 0  -0.8926817849258324 0.463022006336401 0  0.2338091473445219 -0.07576267331277289 0  0.08171112182813692 -0.2349087687359925 0  0.04635385178956847 -0.1044635073718474 0  -0.4377391632114205 -0.6448874471423088 0  -0.1907678351227189 0.6480215912813945 0  0.300605946475244 0.4741444604171038 0  -0.2145033720757486 -0.06751709909419711 0  0.6069191921170397 -0.005492331448357812 0  0.0214718770761248 0.6032397936031719 0  0.5476675683364878 0.8992752415326501 0  0.4387475014316537 0.9093708953002239 0  -0.4932997685306436 -0.4381009159993523 0  0.2515197695339056 -0.1791673369138964 0  -0.7291666666666667 -0.6088789682539681 0  -0.9166666666666667 -0.6875 0  0.620579540363709 -0.2122431523583302 0  -0.484950136419973 0.6719440339397442 0  0.2857044415400258 0.0137589173127316 0  -0.8945708364098356 -0.288306105327986 0  0.4043102720140535 0.7842914560451557 0  0.04123256238752064 -0.9026968245801402 0  0.2003676884403109 -0.9091888601740487 0  0.1068775558538842 -0.7373377130403223 0  -0.4804566783514427 -0.1763307203045643 0  0.108286342087769 -0.3993789328997278 0  -0.191883080105361 -0.3640821726430649 0  -0.07025064492006244 0.2984876656890053 0  -0.7039324641409584 0.788312126296613 0  -0.7311286585775438 0.8932502354831682 0  0.5171409396884947 0.1503852691889257 0  0.4229392823658633 -0.003216522184234835 0  -0.5621736087218259 -0.919558629836806 0  -0.626474064879544 -0.7266572613636506 0  0.2446828746617422 0.2867616783302419 0  0.1759429608742923 0.4776611759306416 0  -0.3468240303741654 -0.5260416435617549 0  -0.7465808808425306 0.4069574477998361 0  -0.7819962170660292 0.2802441065650652 0  -0.3742623214119594 -0.8547800509641984 0  0.1014498009713561 0.8506721983266377 0  0.4285217620918213 -0.5230190595570253 0  0.4091738370487775 -0.6256346204225141 0  0.78125 0.46875 0  0.90625 0.53125 0  -0.4791801348852565 0.2553992655702126 0  0.7843318610782772 -0.7086046956885941 0  0.8909728264971901 -0.7355183796514634 0  0.7041908166528879 -0.7830649143180282 0  0.731182135
[...]
<PointData  Vectors="f_21"> 
<DataArray  type="Float64"  Name="f_21"  NumberOfComponents="3" format="ascii">-4.3763951750559311e-08 -1.5735246462479229e-07 0.0000000000000000e+00  -4.3763951750559311e-08 -1.5735246462479229e-07 0.0000000000000000e+00  -4.3763951750559311e-08 -1.5735246462479229e-07 0.0000000000000000e+00  -4.3763951750559311e-08 -1.5735246462479229e-07 0.0000000000000000e+00  -7.3839928447153611e-08 -2.2913135032689298e-07 0.0000000000000000e+00  2.9619776770710327e-08 -6.0685579105787122e-08 0.0000000000000000e+00  -7.3839928447153611e-08 -2.2913135032689298e-07 0.0000000000000000e+00  2.9619776770710327e-08 -6.0685579105787122e-08 0.0000000000000000e+00  -1.6738684078141353e-07 1.5938634873029988e-07 0.0000000000000000e+00  -1.3301146823554301e-02 -8.1045065231981499e-08 0.0000000000000000e+00  -4.0618320273132546e-08 1.3301163969559597e-02 0.0000000000000000e+00  -4.0618320273132546e-08 1.3301163969559597e-02 0.0000000000000000e+00  1.3301317287435508e-02 -2.1878744677310446e-08 0.0000000000000000e+00  -1.3301146823554301e-02 -8.1045065231981499e-08 0.0000000000000000e+00  -7.4162949124431576e-08 -1.3301150533452450e-02 0.0000000000000000e+00  1.3301317287435508e-02 -2.1878744677310446e-08 0.0000000000000000e+00  -7.4162949124431576e-08 -1.3301150533452450e-02 0.0000000000000000e+00  3.3253602052317915e-03 3.3252267899339504e-03 0.0000000000000000e+00  -3.3255110701330744e-03 -3.3252792157257610e-03 0.0000000000000000e+00  9.4053358329204868e-03 5.3181946399539957e-08 0.0000000000000000e+00  -7.7095329877807384e-09 9.4053700257358246e-03 0.0000000000000000e+00  1.2572582666509459e-04 -1.2973631125817401e-02 0.0000000000000000e+00  -1.2946903377244469e-02 -6.8664290967041089e-05 0.0000000000000000e+00  -4.7026541505991682e-03 4.7026001214810010e-03 0.0000000000000000e+00  4.7025822446379968e-03 -4.7027102259705102e-03 0.0000000000000000e+00  -6.3972776365457881e-03 6.8945241069313526e-03 0.0000000000000000e+00  5.0059906640811868e-03 -8.2952469443783577e-03 0.0000000000000000e+00  -6.8947086690034423e-03 6.3971326334296939e-03 0.0000000000000000e+00  1.1467482752402699e-02 -1.7769624868116717e-03 0.0000000000000000e+00  -5.9647959763025962e-03 -5.9647206044431593e-03 0.0000000000000000e+00  5.9647143679013009e-03 5.9646721079598276e-03 0.0000000000000000e+00  1.3293340777828417e-03 1.1518591796676926e-02 0.0000000000000000e+00  -7.0982184930543065e-03 -5.8056895029321466e-03 0.0000000000000000e+00  -5.5029933827285505e-03 -7.3327368976952483e-03 0.0000000000000000e+00  1.1268234370178971e-02 4.5224954191699197e-04 0.0000000000000000e+00  -3.9461634813357299e-03 -8.9018255297465872e-03 0.0000000000000000e+00  3.5234283158262708e-03 -8.1622876311822513e-03 0.0000000000000000e+00  5.3471207637735265e-03 -7.2904692981966878e-03 0.0000000000000000e+00  -5.7463078725493045e-03 6.9880392097653628e-03 0.0000000000000000e+00  8.6894143462792998e-03 3.5992330197087089e-03 0.0000000000000000e+00  8.1650850448243169e-03 4.2805889309749457e-03 0.0000000000000000e+00  1.0874753009987744e-03 1.0443246964081575e-02 0.0000000000000000e+00  -2.4306082929884339e-08 9.4054009824832592e-03 0.0000000000000000e+00  -9.4053339506255853e-03 2.2195438703522076e-08 0.0000000000000000e+00  9.4053505027062723e-03 -6.1734400686037697e-08 0.0000000000000000e+00  -1.0946288357519851e-07 -9.4053321001922631e-03 0.0000000000000000e+00  -1.3326466056681663e-03 -9.4805443980055318e-03 0.0000000000000000e+00  1.4164968899006421e-03 -6.5172316494754284e-03 0.0000000000000000e+00  -3.8565045504701215e-03 4.1706239686371111e-04 0.0000000000000000e+00  -1.7143554134149056e-08 -9.4054343228405345e-03 0.0000000000000000e+00  -4.9281238145360422e-08 9.4053547652992991e-03 0.0000000000000000e+00  -2.4306082929884339e-08 9.4054009824832592e-03 0.0000000000000000e+00  -1.0946288357519851e-07 -9.4053321001922631e-03 0.0000000000000000e+00  -9.4052426387111077e-03 -8.7442777627288946e-08 0.0000000000000000e+00  9.4053515966371817e-03 2.3308512983241298e-08 0.0000000000000000e+00  -9.4052426387111077e-03 -8.7442777627288946e-08 0.0000000000000000e+00  -4.9281238145360422e-08 9.4053547652992991e-03 0.0000000000000000e+00  -9.4053339506255853e-03 2.2195438703522076e-08 0.0000000000000000e+00  9.4053505027062723e-03 -6.1734400686037697e-08 0.0000000000000000e+00  -1.7143554134149056e-08 -9.4054343228405345e-03 0.0000000000000000e+00  9.4053515966371817e-03 2.3308512983241298e-08 0.0000000000000000e+00  2.7032370819941158e-03 9.2519343997032669e-03 0.0000000000000000e+00  -8.9811436391842355e-03 -1.9538737409165760e-03 0.0000000000000000e+00  -1.0939931280307369e-02 -2.2501895047212610e-03 0.0000000000000000e+00  6.0373081068655302e-03 -2.1761367521983617e-03 0.0000000000000000e+00  -1.3617811327381799e-04 -1.1762386376398535e-02 0.0000000000000000e+00  -7.2528642255552194e-04 1.0086438164427072e-02 0.0000000000000000e+00  -5.5994558216722490e-03 1.7382629696301470e-03 0.0000000000000000e+00  -4.3570499256045649e-04 1.0337026322006294e-02 0.0000000000000000e+00  -8.5821678152470052e-03 -7.2599283598400190e-05 0.0000000000000000e+00  5.4625598188177121e-03 5.3605740171335748e-03 0.0000000000000000e+00  1.0536284990028396e-02 1.4503799262795658e-03 0.0000000000000000e+00  -1.1816122989635752e-02 1.3668786148738831e-03 0.0000000000000000e+00  1.0551611057728491e-02 -2.6999361416270963e-03 0.0000000000000000e+00  -1.0642254618668006e-02 2.5449568983629558e-03 0.0000000000000000e+00  -2.0490542920130628e-03 1.0807107141252957e-02 0.0000000000000000e+00  2.2036851936211438e-03 1.4356628245776489e-03 0.0000000000000000e+00  1.0846952630883300e-02 -1.4415268301558345e-03 0.0000000000000000e+00  6.5227530657252465e-03 -6.5228541407791234e-03 0.0000000000000000e+00  2.2958522213682706e-04 -1.0625272615784094e-02 0.0000000000000000e+00  5.9786257459221370e-03 -4.4471683091236065e-03 0.0000000000000000e+00  -6.0448517182982945e-03 6.0448457063809486e-03 0.0000000000000000e+00  1.2480483384390513e-02 8.1941120911791399e-04 0.0000000000000000e+00  5.5378286252909089e-05 1.3134855007551644e-02 0.0000000000000000e+00  6.1694689606919782e-03 6.8304827686515796e-03 0.0000000000000000e+00  -4.8464177711371681e-04 -3.7033049268790958e-03 0.0000000000000000e+00  -2.1884878220624670e-03 -1.1094911315061448e-02 0.0000000000000000e+00  -6.0894069591170127e-03 -6.0893515752885267e-03 0.0000000000000000e+00  8.0509349236222315e-04 3.0560424844641504e-03 0.0000000000000000e+00  1.1094918996890203e-02 2.1884085593899638e-03 0.0000000000000000e+00  6.0860821230825307e-03 6.1098857668214655e-03 0.0000000000000000e+00  -1.1094872528681679e-02 -2.1883978343227345e-03 0.0000000000000000e+00  -8.7490698019929980e-03 1.3680895218373039e-03 0.0000000000000000e+00  -1.1146612563868058e-02 1.2297036159812683e-03 0.0000000000000000e+00  3.3983156761605978e-03 2.0917808960448313e-03 0.0000000000000000e+00  -4.6653383736391376e-03 4.9140786914679702e-03 0.0000000000000000e+00  -4.9141462535186257e-03 4.6654491393347090e-03 0.0000000000000000e+00  4.6669214564125615e-03 -4.9060076443588150e-03 0.0000000000000000e+00  4.6694188339243574e-03 4.8919867174000604e-03 0.0000000000000000e+00  2.0046604479780393e-03 1.1295530428408114e-02 0.0000000000000000e+00  -9.2622997317994248e-03 3.0751121488671956e-03 0.0000000000000000e+00  -9.3393385661028824e-03 -1.8961202980230369e-03 0.0000000000000000e+00  -7.2259181792262998e-04 6.8666717622037450e-03 0.0000000000000000e+00  6.8238663295824157e-03 -2.2792969974540691e-03 0.0000000000000000e+00  -8.7554923141630065e-03 -5.7590750340993783e-04 0.0000000000000000e+00  -1.2288570944003801e-02 -6.8520932914833514e-08 0.0000000000000000e+00  -2.0776540945877408e-03 -1.0102702582258710e-02 0.0000000000000000e+00  4.3221682456345946e-03 8.8605797513764042e-03 0.0000000000000000e+00  -1.6720997401876635e-08 -1.2288860619367691e-02 0.0000000000000000e+00  2.3880110084698015e-03 -7.6709108772940156e-03 0.0000000000000000e+00  -5.0900267914885302e-03 -5.6968669841981960e-08 0.0000000000000000e+00  -6.5346582615836814e-03 -5.1638391875044589e-03 0.0000000000000000e+00  5.5348565018481868e-04 -1.1072929074592227e-02 0.0000000000000000e+00  7.0682204548381403e-03 -5.2451025552666362e-03 0.0000000000000000e+00  1.2179026427695652e-02 -1.0636158467250932e-03 0.0000000000000000e+00  6.5156045480091991e-03 -1.8226642611926713e-03 0.0000000000000000e+00  -2.0178837145859783e-03 1.1204580576925803e-02 0.0000000000000000e+00  -1.3389161581687649e-03 -5.6226668380122326e-03 0.0000000000000000e+00  -1.7398294925732296e-03 1.1363802363256754e-02 0.0000000000000000e+00  5.3175199145740338e-04 -1.2472383275603904e-02 0.0000000000000000e+00  -2.5201957986829789e-03 1.0736043603510473e-02 0.0000000000000000e+00  3.4972338221179671e-08 -1.2288930443095663e-02 0.0000000000000000e+00  -9.8646374761927804e-04 -6.3929378537185043e-03 0.0000000000000000e+00  1.3135883518795164e-02 1.1633308003871177e-04 0.0000000000000000e+00  5.0900065121047599e-03 2.6020724199513264e-08 0.0000000000000000e+00  -4.2477534618118934e-03 5.5869529628709974e-03 0.0000000000000000e+00  -3.6700454268413637e-03 -8.3530851084300493e-03 0.0000000000000000e+00  -3.9822136260615907e-03 -4.0883567275350457e-03 0.0000000000000000e+00  -4.0738641448534319e-08 -5.0902062381817841e-03 0.0000000000000000e+00  -5.0042985698023311e-03 -6.9489514885937003e-03 0.0000000000000000e+00  3.9122493706800479e-03 -9.1239517738436922e-03 0.0000000000000000e+00  6.2703376688036999e-03 4.5008881885583336e-03 0.0000000000000000e+00  -4.7482317700125549e-03 7.5417999630119073e-03 0.0000000000000000e+00  4.9492493410464725e-04 -1.1827063719639735e-02 0.0000000000000000e+00  7.8263779008006761e-03 -5.3921330823239197e-03 0.0000000000000000e+00  -1.2302011597941869e-02 -7.5789680058331712e-05 0.0000000000000000e+00  -1.1165698025989606e-02 -2.0238973650836484e-03 0.0000000000000000e+00  -9.8942106506626753e-03 2.9749109987400853e-03 0.0000000000000000e+00  2.9929818850261401e-03 -9.8848847306126954e-03 0.0000000000000000e+00  4.0083587143375891e-03 8.9588591091912476e-03 0.0000000000000000e+00  9.4873186188507656e-03 -1.4079395307053355e-04 0.0000000000000000e+00  -8.5245058158663716e-08 5.0900092718329012e-03 0.0000000000000000e+00  5.0982677502849419e-03 2.2952211750947127e-03 0.0000000000000000e+00  1.2052408544501561e-02 9.9306338358419151e-04 0.0000000000000000e+00  8.9851526203247774e-03 3.8655282400263699e-03 0.0000000000000000e+00  -7.2336314131533716e-08 -5.0899892287460148e-03 0.0000000000000000e+00  -7.9992254982311634e-03 -4.4553929104866712e-03 0.0000000000000000e+00  -2.6399039872155540e-03 -1.0609543166833189e-02 0.0000000000000000e+00  1.0388733561975535e-02 -4.1569241256914433e-06 0.0000000000000000e+00  -8.9714222232749868e-03 -1.6235774514643192e-03 0.0000000000000000e+00  9.6740322072860763e-03 3.5601358312550313e-03 0.0000000000000000e+00  -6.8566632971787059e-03 6.2351725243184062e-03 0.0000000000000000e+00  1.3335518511805037e-08 1.2288681841048282e-02 0.0000000000000000e+00  2.6882148918052637e-03 -1.0612828919459591e-02 0.0000000000000000e+00  9.4752639725953318e-03 -3.3225791143986689e-03 0.0000000000000000e+00  -4.4736918958377791e-03 2.8975277477737925e-03 0.0000000000000000e+00  -3.9272157893262532e-03 6.7973060709097593e-03 0.0000000000000000e+00  -1.6712365940669180e-03 -8.9776051748997505e-03 0.0000000000000000e+00  -1.6720997401876635e-08 -1.2288860619367691e-02 0.0000000000000000e+00  1.8877478417164456e-04 1.2820050134644143e-02 0.0000000000000000e+00  1.0352382802547378e-02 -2.6933831179216682e-03 0.0000000000000000e+00  -1.3071603794547568e-02 -2.2438196934423864e-05 0.0000000000000000e+00  -1.1194122212040830e-02 -2.1024849972870463e-03 0.0000000000000000e+00  -1.0033584965682496e-02 3.0213075751946874e-03 0.0000000000000000e+00  -7.4129449976563762e-03 -4.2827281673394951e-03 0.0000000000000000e+00  9.8450812688187157e-08 5.0899979389597361e-03 0.0000000000000000e+00  5.0900065121047599e-03 2.6020724199513264e-08 0.0000000000000000e+00  -5.0903317921547741e-03 -7.1991558127770088e-08 0.0000000000000000e+00  -7.2336314131533716e-08 -5.0899892287460148e-03 0.0000000000000000e+00  -2.3700656639154708e-04 -5.3218099142209874e-03 0.0000000000000000e+00  2.4306832306544711e-03 -9.2180616501125398e-03 0.0000000000000000e+00  -4.3221820011132570e-03 -8.8683869026524031e-03 0.0000000000000000e+00  -8.5526631509928600e-04 8.1612329508505190e-03 0.0000000000000000e+00  4.5058551390245432e-04 1.2189857309442496e-02 0.0000000000000000e+00  -1.0276284724309510e-03 4.9678283948017682e-03 0.0000000000000000e+00  9.8450812688187157e-08 5.0899979389597361e-03 0.0000000000000000e+00  -5.0903317921547741e-03 -7.1991558127770088e-08 0.0000000000000000e+00  7.5607947751587029e-03 -5.3784554767531744e-04 0.0000000000000000e+00  4.9943531806167056e-03 -2.6930188916975593e-03 0.0000000000000000e+00  9.8226868902027802e-03 3.2563743080631477e-03 0.0000000000000000e+00  -1.3340396276732469e-03 -1.1913230676050504e-02 0.0000000000000000e+00  -4.3625839771590234e-04 -1.2801501277522212e-02 0.0000000000000000e+00  -5.0207454634840203e-03 -3.2221970334206057e-03 0.0000000000000000e+00  -5.2358690310962087e-03 -1.4712225460760349e-04 0.0000000000000000e+00  -4.6962208298030646e-07 5.0948050353234672e-03 0.0000000000000000e+00  1.3335518511805037e-08 1.2288681841048282e-02 0.0000000000000000e+00  -9.7101425367717553e-08 1.2288711902031031e-02 0.0000000000000000e+00  5.0900940180986136e-03 5.9297469953545519e-08 0.0000000000000000e+00  -8.5245058158663716e-08 5.0900092718329012e-03 0.0000000000000000e+00  -1.2288570944003801e-02 -6.8520932914833514e-08 0.0000000000000000e+00  -5.0900267914885302e-03 -5.6968669841981960e-08 0.0000000000000000e+00  -1.2288658629682281e-02 -4.4666061455100546e-08 0.0000000000000000e+00  3.4972338221179671e-08 -1.2288930443095663e-02 0.0000000000000000e+00  -4.0738641448534319e-08 -5.0902062381817841e-03 0.0000000000000000e+00  -9.7101425367717553e-08 1.2288711902031031e-02 0.0000000000000000e+00  -1.2288658629682281e-02 -4.4666061455100546e-08 0.0000000000000000e+00  5.0900940180986136e-03 5.9297469953545519e-08 0.0000000000000000e+00  1.2288633962903360e-02 -1.6505405684930279e-09 0.0000000000000000e+00  1.2288737757592738e-02 4.1062678128864291e-09 0.0000000000000000e+00  1.2288633962903360e-02 -1.6505405684930279e-09 0.0000000000000000e+00  1.2288737757592738e-02 4.1062678128864291e-09 0.0000000000000000e+00  4.6614525143243027e-03 6.0758915310445858e-03 0.0000000000000000e+00  -9.0691691238692761e-03 1.9135503769131018e-03 0.0000000000000000e+00  8.6525324229092173e-03 -3.5707721588183190e-03 0.0000000000000000e+00  4.7939914231534056e-03 -4.7940609191759612e-03 0.0000000000000000e+00  6.3056265993409926e-03 -5.7245439529823713e-03 0.0000000000000000e+00  1.4596565302017034e-03 -3.5671465045077812e-03 0.0000000000000000e+00  7.0244182374696118e-03 2.0137344740174903e-03 0.0000000000000000e+00  -2.9640058166284602e-03 9.8323428845530515e-03 0.0000000000000000e+00  -1.2326222700761424e-02 1.6711851232095880e-04 0.0000000000000000e+00  -4.6403657302559144e-03 1.1944092213367519e-03 0.0000000000000000e+00  1.5775448598452973e-03 1.1723291449927306e-02 0.0000000000000000e+00  2.5571330395133540e-03 1.0313000212363184e-02 0.0000000000000000e+00  -2.0657106746375716e-03 8.8800425310263179e-03 0.0000000000000000e+00  -5.4998728750719275e-03 -3.5203787837545172e-03 0.0000000000000000e+00  -2.8573837989296588e-03 5.8581124275639516e-04 0.0000000000000000e+00  -5.0016311932111826e-03 -2.8103029547717154e-03 0.0000000000000000e+00  1.0479882310446395e-02 -1.5459782002360508e-03 0.0000000000000000e+00  3.3435669846445058e-03 -8.5658093435053689e-03 0.0000000000000000e+00  3.3041441904526109e-03 7.3091671300038350e-03 0.0000000000000000e+00  2.5696069121478328e-03 9.2482484238509566e-03 0.0000000000000000e+00  -8.0125066660866901e-03 3.9708132838056163e-03 0.0000000000000000e+00  -9.2564603286719965e-04 1.1910275986383855e-03 0.0000000000000000e+00  1.5066107970508922e-04 1.2433532765744991e-02 0.0000000000000000e+00  4.3840197578731428e-04 -1.4839081850791787e-03 0.0000000000000000e+00  -3.8904160109354859e-03 8.7321313050979076e-03 0.0000000000000000e+00  -8.1715104867378791e-03 -5.0646839122737725e-03 0.0000000000000000e+00  2.0787847652553519e-03 -1.1084370937324121e-02 0.0000000000000000e+00  -2.2195296178182714e-03 -1.1013784503326102e-02 0.0000000000000000e+00  5.9047056679896685e-03 7.1719340693605031e-03 0.0000000000000000e+00  -2.2510973891623609e-04 6.1294464872834525e-03 0.0000000000000000e+00  2.4649238520683577e-03 -3.7516254158885200e-03 0.0000000000000000e+00  8.5090700192169341e-03 -4.4922624769463855e-03 0.0000000000000000e+00  3.3055150302252825e-03 -8.4861657729071571e-03 0.0000000000000000e+00  -6.4597524803093132e-03 -6.7996759011984742e-03 0.0000000000000000e+00  -5.1903752270771155e-03 4.1761833055190640e-03 0.0000000000000000e+00  -3.3369982230905858e-03 8.3935281955493900e-03 0.0000000000000000e+00  3.6690972425700097e-03 6.4748976578597097e-03 0.0000000000000000e+00  -1.2057240957824965e-02 1.2434429576704130e-03 0.0000000000000000e+00  7.3292458567389600e-03 1.5890394432607759e-03 0.0000000000000000e+00  5.7576476061355500e-03 7.0066195284556702e-03 0.0000000000000000e+00  -2.0935098093683826e-03 1.0598038665542441e-02 0.0000000000000000e+00  -1.1568646096844945e-02 8.9830338958452006e-04 0.0000000000000000e+00  1.2467782698933982e-02 -5.1008167070526391e-04 0.0000000000000000e+00  2.3274824865173933e-03 8.6635369453339599e-03 0.0000000000000000e+00  8.6557965659835711e-03 2.4983647569210305e-03 0.0000000000000000e+00  4.2419333250357499e-03 1.8270128536996986e-03 0.0000000000000000e+00  2.3218961600588294e-03 5.7358969748835696e-03 0.0000000000000000e+00  -9.8168605360970228e-03 3.3646150463214064e-03 0.0000000000000000e+00  -7.7719532422254834e-03 8.7423578925578823e-04 0.0000000000000000e+00  2.1880192101730507e-03 -8.1142576600224097e-03 0.0000000000000000e+00  -7.5729327346792799e-05 1.2555892072318964e-02 0.0000000000000000e+00  -1.2578985251637354e-02 -2.8580204488388961e-04 0.0000000000000000e+00  6.1749372990819280e-04 -1.2499385826367986e-02 0.0000000000000000e+00  -7.1456175598831519e-04 -1.2530120458631116e-02 0.0000000000000000e+00  2.7470583605540181e-04 -2.5698297854800096e-03 0.0000000000000000e+00  4.9948142589846499e-03 7.9922191074036104e-03 0.0000000000000000e+00  -8.2619994065899101e-03 3.3542802159433629e-03 0.0000000000000000e+00  -1.0682769038876742e-02 1.9125554325455649e-03 0.0000000000000000e+00  -3.0422439108188496e-03 9.7111804648932817e-03 0.0000000000000000e+00  -5.3914238458827870e-04 6.8328858353845189e-03 0.0000000000000000e+00  -3.5838586034749975e-04 1.0389311166727628e-02 0.0000000000000000e+00  -9.8974859697943621e-03 -2.6693869331988538e-03 0.0000000000000000e+00  -2.4694956841556856e-03 -9.8975036622644570e-03 0.0000000000000000e+00  3.9694480095017219e-03 -1.6384283113190146e-03 0.0000000000000000e+00  3.0260512789787130e-03 -7.5141910833748512e-03 0.0000000000000000e+00  9.2263203085009866e-03 -2.9733471858033557e-03 0.0000000000000000e+00  4.2944970439893213e-04 -1.1290741985615631e-02 0.0000000000000000e+00  1.1917530456063665e-02 1.3795963942095455e-03 0.0000000000000000e+00  9.9728945487093639e-03 -3.1232193982777346e-03 0.0000000000000000e+00  -1.0463495757871012e-02 -1.7226383107825135e-03 0.0000000000000000e+00  4.9062112881242941e-03 8.3909568993094270e-03 0.0000000000000000e+00  2.9065935432879006e-03 9.3919319575710043e-03 0.0000000000000000e+00  3.2583370258067754e-04 1.1826911741457759e-02 0.0000000000000000e+00  3.2308817675525382e-05 1.2912531215830147e-02 0.0000000000000000e+00  -6.4542520122201142e-04 1.2633764012870056e-02 0.0000000000000000e+00  -3.8963211487121896e-03 8.0138932659138944e-03 0.0000000000000000e+00  -7.4947275084005565e-03 5.7414854071179489e-03 0.0000000000000000e+00  -1.1292562656050557e-02 4.8964038730949855e-04 0.0000000000000000e+00  6.1359216540735895e-03 9.6342919444562033e-04 0.0000000000000000e+00 