<?xml version="1.0"?>
<VTKFile type="UnstructuredGrid"  version="0.1"  >
<UnstructuredGrid>
<Piece  NumberOfPoints="5315" NumberOfCells="10372">
<Points>
<DataArray  type="Float64"  NumberOfComponents="3"  format="ascii">-1 -1 0  1 -1 0  1 1 0  -1 1 0  0 -1 0  1 0 0  0 1 0  -1 0 0  0 0 0  -1 -0.5 0  -0.5 -1 0  -0.5 1 0  -1 0.5 0  1 -0.5 0  0.5 -1 0  1 0.5 0  0.5 1 0  0.4166666666666666 -0.4166666666666667 0  -0.4166666666666667 0.4166666666666667 0  -0.25 -0.5 0  0.5 0.25 0  -0.4861111111111112 -0.06944444444444445 0  0.0732758620689655 0.507183908045977 0  -0.625 -0.625 0  0.625 0.625 0  0.7380952380952381 -0.25 0  -0.7099116161616161 0.2105429292929293 0  -0.25 0.7380952380952381 0  0.105392156862745 -0.6348039215686275 0  0.6770833333333334 -0.6770833333333333 0  -0.6770833333333334 0.6770833333333334 0  0.3472222222222222 -0.06944444444444446 0  -0.7264957264957265 -0.3044871794871795 0  0.3141940982507127 0.7297313660835709 0  0.02049587951122483 -0.3227479397556124 0  -0.2690972222222223 0.1475694444444444 0  0.3859500089908372 -0.7274430156831472 0  -0.2228477945123298 -0.1761765495248019 0  0.2182539682539683 0.1884920634920635 0  0.75 0.375 0  -0.145442219440968 -0.7602211097204841 0  0.7088913690476191 0.0427827380952381 0  -0.75 -1 0  -1 -0.75 0  1 0.75 0  0.75 1 0  -0.7439982703698937 -0.04614153195464455 0  -0.4609235096577606 -0.3356498099556895 0  0.4063134471431929 0.4895621842856023 0  0.25 -1 0  -0.25 -1 0  -0.75 1 0  0.75 -1 0  -1 -0.25 0  -1 0.25 0  1 -0.25 0  -0.25 1 0  1 -0.75 0  -1 0.75 0  0.25 1 0  1 0.25 0  -0.4041423272138783 -0.7597141090712928 0  0.06500839607911253 0.7578103030529481 0  -0.1572801182352047 0.3838997021864289 0  -0.6528005242053915 0.4409494757946086 0  -0.4930160984848485 0.1544744318181818 0  -0.4732142857142858 0.7752976190476191 0  0.6398809523809523 -0.4538690476190476 0  0.5166054117396399 -0.2161233620965164 0  -0.002273787244753427 0.2232363985975174 0  0.1500564496765022 -0.1524955293952667 0  0.2016720420046758 -0.4410343282803009 0  -0.08495178036419618 0.6274139771124571 0  -0.8367311471133162 0.3642591720794645 0  -0.8333333333333334 -0.625 0  -0.594323836800685 -0.8231079456002283 0  -0.4466957714776065 -0.5349126855671806 0  0.8125 0.5625 0  0.78125 0.78125 0  0.5091392650016769 0.7947130883338923 0  0.125 -0.8382681931833136 0  -0.8184523809523809 -0.8184523809523809 0  -0.07781530426104531 -0.5819319697006881 0  0.5085055196703295 0.04967610411902112 0  0.2918471072074933 -0.276017202318847 0  0.5120763537765269 -0.5898771553229597 0  0.625 -0.8585349462365591 0  0.8158532234335381 -0.8158532234335381 0  -0.5198088446315396 0.5739411553684605 0  -0.8585349462365591 0.625 0  -0.8150493805516597 0.8156205699829586 0  0.8585349462365591 -0.625 0  -0.2688268348649726 0.5439331383603209 0  0.8242100426758139 -0.4436043596336612 0  0.5833756314287952 0.4479378157143976 0  0.8690476190476191 -0.125 0  -0.125 0.8690476190476191 0  -0.8692745600729823 0.125 0  0.8696725120759167 0.125 0  -0.625 0.8711516477451908 0  0.2339522463269718 0.3879558377955778 0  0.2453709502295031 0.5655822922838026 0  0.1730610651637797 0.02021709580868947 0  0.3245402594056757 -0.5644672020485209 0  -0.7291666666666666 -0.4816595441595442 0  -1 -0.375 0  -0.5811140848639904 -0.2127276307675001 0  0.673332592838314 0.2158348143233718 0  0.375 1 0  -0.5714768890989919 0.2985103444040069 0  -1 -0.125 0  -0.8453692574786325 -0.1875 0  -0.3144549134065865 -0.02408675326008025 0  -0.2898414972096258 -0.3336092734780093 0  -0.1075052092206287 -0.4224330421314983 0  -0.05043970703604117 -0.1652278959397459 0  0.6459672950297897 -0.1113415301525317 0  0.4645210271029513 0.6398480556579343 0  0.3512863754411909 0.0937979496253573 0  -0.6063160985568274 0.03891469652249891 0  -0.3428819444444445 0.8690476190476191 0  0.625 1 0  -0.1602164796159982 0.02697860906625157 0  0.04648110064133829 -0.4808416424239687 0  1 0.875 0  -0.3836102479201657 0.6484936449177356 0  -0.3776011723096096 0.263078478984336 0  -0.6024978259969829 -0.3949628096211138 0  0.125 1 0  0.2010781308272777 0.8456221018461906 0  0.2822509696388829 -0.845902544691141 0  -0.3285533674953515 -0.6289773550938936 0  0.3461306793221754 0.278777492464833 0  0.4737475672408696 -0.8508448959534423 0  0.2384632828836344 -0.7029523187242811 0  -0.004777287059791593 0.3759269695907358 0  -0.8499735021850066 -0.3912320205328522 0  0.1222536293721587 0.2963971539625205 0  -0.3769456520999688 -0.203572526805711 0  -0.2749617205755651 -0.8464290792698902 0  0.004805888512766143 -0.747174355248311 0  -0.125 -1 0  -0.06001061822252458 -0.8724007765244854 0  0.875 0.4375 0  0.854421179608893 0.271342359217786 0  0.875 1 0  -0.1499861095763589 0.2358309656934888 0  0.3381943639137225 0.8663061796405532 0  -0.7853090110442228 0.4998412775277108 0  0.7398165998560814 -0.5535192694951373 0  0.1580042122341573 -0.3100246140259917 0  -0.7291666666666667 -0.7142857142857142 0  -0.375 -1 0  0.6483368386154684 0.8514905990110488 0  -0.1295370103291928 -0.2826118305021242 0  0.07458201853700455 0.1123894386563915 0  0.6146465857036327 -0.3161203659316075 0  0.5551898493894731 -0.740296118159085 0  0.375 -1 0  0.482702798370208 -0.084133350091034 0  0.87890625 0.68359375 0  -0.05917195534525846 0.4971092425697621 0  0.1260710309213975 0.6343750312956699 0  0.8690476190476191 -0.3077066815262848 0  -0.2912010232560567 0.3668168386732139 0  -0.875 1 0  -1 0.875 0  1 -0.875 0  0.875 -1 0  -0.8689564281364567 -0.006189266075306407 0  -0.7449425635110547 0.08458938160051771 0  -0.7150266761936593 -0.1739444581417552 0  -0.5260034831318311 -0.711099823962112 0  -0.4724626808827322 -0.871722230709409 0  0.4734436795977052 0.377714794132168 0  -0.875 -1 0  -1 -0.875 0  0.6927189078571988 0.5156567235715964 0  -0.3742497615796874 -0.4296005251260107 0  -0.1969436423297711 -0.6387157229772615 0  -0.6179496409766825 -0.08933356056510935 0  -0.424405057115988 0.04452428810878029 0  -0.08479048335844169 0.1279607007132633 0  0.003830300099055113 0.8712085230656206 0  0.8748778838820267 -1.379218479898026e-05 0  -0.375 1 0  -0.625 1 0  1 0.125 0  -0.125 1 0  1 -0.375 0  1 -0.125 0  1 -0.625 0  0.625 -1 0  0.125 -1 0  -0.625 -1 0  -1 -0.625 0  -1 0.125 0  -1 0.375 0  -1 0.625 0  1 0.375 0  1 0.625 0  0.6325660748712082 0.3335187599557389 0  -0.06420945895056573 0.7549874027425891 0  -0.8769015540914771 0.2478802253893416 0  0.871875 0.871875 0  -0.6868091492840067 0.3270978624973681 0  -0.5363597469565949 0.412994850055505 0  -0.6803734992638302 0.5574295000651103 0  -0.7076253581162534 -0.8803439094224437 0  -0.8778089002295137 -0.5106896447504627 0  -0.3860184984222981 0.530566778071246 0  0.6109900617121508 0.1128453077697081 0  0.3896945134930274 -0.1915382873255086 0  0.7605656944697778 -0.06822134873122943 0  0.3576151269893478 0.5948388411612135 0  -0.5689902680792265 -0.5143596830118065 0  0.6262446286847614 -0.5735657901943212 0  0.2030558252325225 -0.5625263842513452 0  0.6123273142928579 0.7407533260723429 0  0.4016460890123554 -0.3042863223111857 0  -0.59039693199147 0.7578418819188018 0  0.7276932493917544 -0.3705808024528924 0  0.5222536818742854 -0.4713886230400014 0  -0.5101986527137737 0.8848365765607674 0  0.510560172809238 0.5356013299918891 0  -0.3603569195756083 0.75823710606415 0  0.1967279277813232 0.728226870058472 0  -0.6086880986371127 0.1545624071548516 0  -0.38105366729386 0.1511189987807864 0  -0.2944659463671584 -0.7359061804869591 0  0.5060729154966499 -0.3475227845833823 0  -0.09281616240412746 -0.06197858250969457 0  0.7649739583333334 0.6673177083333334 0  0.7628906249999999 0.890234375 0  -0.2666864184909611 0.2585504071132311 0  0.3635064892129658 0.3878003602709461 0  -0.2339409722222222 0.8901937905844155 0  -0.1718792125974916 -0.8957733325456778 0  0.1001768566329531 0.4023510017391879 0  0.3120260172693757 -0.4540546875576884 0  0.7804062804433681 0.1896628610854537 0  0.4087715451998049 0.187961780041608 0  -0.1584963477271457 0.5451611892421655 0  -0.8926817849258324 0.463022006336401 0  0.2338091473445219 -0.07576267331277289 0  0.08171112182813692 -0.2349087687359925 0  0.04635385178956847 -0.1044635073718474 0  -0.4377391632114205 -0.6448874471423088 0  -0.1907678351227189 0.6480215912813945 0  0.300605946475244 0.4741444604171038 0  -0.2145033720757486 -0.06751709909419711 0  0.6069191921170397 -0.005492331448357812 0  0.0214718770761248 0.6032397936031719 0  0.5476675683364878 0.8992752415326501 0  0.4387475014316537 0.9093708953002239 0  -0.4932997685306436 -0.4381009159993523 0  0.2515197695339056 -0.1791673369138964 0  -0.7291666666666667 -0.6088789682539681 0  -0.9166666666666667 -0.6875 0  0.620579540363709 -0.2122431523583302 0  -0.484950136419973 0.6719440339397442 0  0.2857044415400258 0.0137589173127316 0  -0.8945708364098356 -0.288306105327986 0  0.4043102720140535 0.7842914560451557 0  0.04123256238752064 -0.9026968245801402 0  0.2003676884403109 -0.9091888601740487 0  0.1068775558538842 -0.7373377130403223 0  -0.4804566783514427 -0.1763307203045643 0  0.108286342087769 -0.3993789328997278 0  -0.191883080105361 -0.3640821726430649 0  -0.07025064492006244 0.2984876656890053 0  -0.7039324641409584 0.788312126296613 0  -0.7311286585775438 0.8932502354831682 0  0.5171409396884947 0.1503852691889257 0  0.4229392823658633 -0.003216522184234835 0  -0.5621736087218259 -0.919558629836806 0  -0.626474064879544 -0.7266572613636506 0  0.2446828746617422 0.2867616783302419 0  0.1759429608742923 0.4776611759306416 0  -0.3468240303741654 -0.5260416435617549 0  -0.7465808808425306 0.4069574477998361 0  -0.7819962170660292 0.2802441065650652 0  -0.3742623214119594 -0.8547800509641984 0  0.1014498009713561 0.8506721983266377 0  0.4285217620918213 -0.5230190595570253 0  0.4091738370487775 -0.6256346204225141 0  0.78125 0.46875 0  0.90625 0.53125 0  -0.4791801348852565 0.2553992655702126 0  0.7843318610782772 -0.7086046956885941 0  0.8909728264971901 -0.7355183796514634 0  0.7041908166528879 -0.7830649143180282 0  0.731182135
[...]
<PointData  Vectors="f_21"> 
<DataArray  type="Float64"  Name="f_21"  NumberOfComponents="3" format="ascii">-5.9104198928083976e-08 -2.0893098113243518e-07 0.0000000000000000e+00  -5.9104198928083976e-08 -2.0893098113243518e-07 0.0000000000000000e+00  -5.9104198928083976e-08 -2.0893098113243518e-07 0.0000000000000000e+00  -5.9104198928083976e-08 -2.0893098113243518e-07 0.0000000000000000e+00  -7.9152599850340646e-08 -3.0597608232809696e-07 0.0000000000000000e+00  3.8577177942931340e-08 -7.2995056401243707e-08 0.0000000000000000e+00  -7.9152599850340646e-08 -3.0597608232809696e-07 0.0000000000000000e+00  3.8577177942931340e-08 -7.2995056401243707e-08 0.0000000000000000e+00  -2.2542786810621711e-07 2.6083686862483860e-07 0.0000000000000000e+00  -1.6172612696225521e-02 -1.0615567528394909e-07 0.0000000000000000e+00  -4.8235115187567050e-08 1.6172655074582973e-02 0.0000000000000000e+00  -4.8235115187567050e-08 1.6172655074582973e-02 0.0000000000000000e+00  1.6172867117572980e-02 -1.7233836508915438e-08 0.0000000000000000e+00  -1.6172612696225521e-02 -1.0615567528394909e-07 0.0000000000000000e+00  -9.9180657765764497e-08 -1.6172593372503458e-02 0.0000000000000000e+00  1.6172867117572980e-02 -1.7233836508915438e-08 0.0000000000000000e+00  -9.9180657765764497e-08 -1.6172593372503458e-02 0.0000000000000000e+00  4.0432597399101189e-03 4.0430844328311144e-03 0.0000000000000000e+00  -4.0434598435464802e-03 -4.0431377619338082e-03 0.0000000000000000e+00  1.1435759659229166e-02 8.8391898309054889e-08 0.0000000000000000e+00  -1.0565603376999715e-08 1.1435839946527459e-02 0.0000000000000000e+00  1.5290160444157653e-04 -1.5774411062641321e-02 0.0000000000000000e+00  -1.5741877603524933e-02 -8.3500225286330888e-05 0.0000000000000000e+00  -5.7178568037861872e-03 5.7178090216461128e-03 0.0000000000000000e+00  5.7177640268731957e-03 -5.7179309297193922e-03 0.0000000000000000e+00  -7.7783394908663038e-03 8.3829220151059852e-03 0.0000000000000000e+00  6.0867156405249555e-03 -1.0086019138756654e-02 0.0000000000000000e+00  -8.3831563532218694e-03 7.7781547059467219e-03 0.0000000000000000e+00  1.3943096463313312e-02 -2.1605608342149907e-03 0.0000000000000000e+00  -7.2525015459408747e-03 -7.2523587033761008e-03 0.0000000000000000e+00  7.2523959334455518e-03 7.2523251332301088e-03 0.0000000000000000e+00  1.6163144100531301e-03 1.4005261630598200e-02 0.0000000000000000e+00  -8.6305829589412714e-03 -7.0590308528706977e-03 0.0000000000000000e+00  -6.6909883316680612e-03 -8.9157343745348179e-03 0.0000000000000000e+00  1.3700837955483214e-02 5.4988185868192375e-04 0.0000000000000000e+00  -4.7980845759244143e-03 -1.0823544369142832e-02 0.0000000000000000e+00  4.2840639743903560e-03 -9.9243532976275115e-03 0.0000000000000000e+00  6.5014532885027468e-03 -8.8643508146781392e-03 0.0000000000000000e+00  -6.9868246575878644e-03 8.4966469763306293e-03 0.0000000000000000e+00  1.0565290858001824e-02 4.3762615197839774e-03 0.0000000000000000e+00  9.9277692983864522e-03 5.2047092508449031e-03 0.0000000000000000e+00  1.3222171498926620e-03 1.2697774960313069e-02 0.0000000000000000e+00  -1.1865023623782005e-08 1.1435876618203871e-02 0.0000000000000000e+00  -1.1435761493081833e-02 4.7755517159929015e-08 0.0000000000000000e+00  1.1435809862007540e-02 -7.8663408322011399e-08 0.0000000000000000e+00  -1.4332062882034267e-07 -1.1435750004555446e-02 0.0000000000000000e+00  -1.6203309281609983e-03 -1.1527195807035611e-02 0.0000000000000000e+00  1.7223173997545198e-03 -7.9241840801870713e-03 0.0000000000000000e+00  -4.6890541590549973e-03 5.0706508229934042e-04 0.0000000000000000e+00  -9.8757165175898129e-09 -1.1435887968410920e-02 0.0000000000000000e+00  -6.7374467047485638e-08 1.1435820909612805e-02 0.0000000000000000e+00  -1.1865023623782005e-08 1.1435876618203871e-02 0.0000000000000000e+00  -1.4332062882034267e-07 -1.1435750004555446e-02 0.0000000000000000e+00  -1.1435638101031010e-02 -1.1232183312640487e-07 0.0000000000000000e+00  1.1435789793195867e-02 4.4648715254234468e-08 0.0000000000000000e+00  -1.1435638101031010e-02 -1.1232183312640487e-07 0.0000000000000000e+00  -6.7374467047485638e-08 1.1435820909612805e-02 0.0000000000000000e+00  -1.1435761493081833e-02 4.7755517159929015e-08 0.0000000000000000e+00  1.1435809862007540e-02 -7.8663408322011399e-08 0.0000000000000000e+00  -9.8757165175898129e-09 -1.1435887968410920e-02 0.0000000000000000e+00  1.1435789793195867e-02 4.4648715254234468e-08 0.0000000000000000e+00  3.2867805904084725e-03 1.1249275275064308e-02 0.0000000000000000e+00  -1.0919977578084035e-02 -2.3756826108353914e-03 0.0000000000000000e+00  -1.3301670481070827e-02 -2.7359573114838494e-03 0.0000000000000000e+00  7.3406661998718170e-03 -2.6459242940264178e-03 0.0000000000000000e+00  -1.6559135082646950e-04 -1.4301619584120483e-02 0.0000000000000000e+00  -8.8186311056314662e-04 1.2263904032754428e-02 0.0000000000000000e+00  -6.8082711172828140e-03 2.1135129325398766e-03 0.0000000000000000e+00  -5.2980227063172179e-04 1.2568593475527752e-02 0.0000000000000000e+00  -1.0434908022589433e-02 -8.8240403432207599e-05 0.0000000000000000e+00  6.6418287970803451e-03 6.5178355464538288e-03 0.0000000000000000e+00  1.2810875154278076e-02 1.7635124682638531e-03 0.0000000000000000e+00  -1.4367020187824622e-02 1.6619644164883268e-03 0.0000000000000000e+00  1.2829500953750914e-02 -3.2828228899518187e-03 0.0000000000000000e+00  -1.2939698245946004e-02 3.0943559982954580e-03 0.0000000000000000e+00  -2.4913897796310933e-03 1.3140175470011426e-02 0.0000000000000000e+00  2.6794225491044437e-03 1.7456264601652298e-03 0.0000000000000000e+00  1.3188599658212109e-02 -1.7526855002232204e-03 0.0000000000000000e+00  7.9308915419511409e-03 -7.9310180779245103e-03 0.0000000000000000e+00  2.7918063002059653e-04 -1.2919083681495946e-02 0.0000000000000000e+00  7.2693135607262436e-03 -5.4072138439471562e-03 0.0000000000000000e+00  -7.3498159701531826e-03 7.3498200027014337e-03 0.0000000000000000e+00  1.5174776419342048e-02 9.9630249664922534e-04 0.0000000000000000e+00  6.7364579538013920e-05 1.5970459698749072e-02 0.0000000000000000e+00  7.5013519794169693e-03 8.3050566175696013e-03 0.0000000000000000e+00  -5.8928155661481380e-04 -4.5027480597824993e-03 0.0000000000000000e+00  -2.6609447705038319e-03 -1.3490070374300868e-02 0.0000000000000000e+00  -7.4040049549452241e-03 -7.4039149405642941e-03 0.0000000000000000e+00  9.7892093240279439e-04 3.7157902854158490e-03 0.0000000000000000e+00  1.3490112074192711e-02 2.6608477378816274e-03 0.0000000000000000e+00  7.3999607024954530e-03 7.4288956699188153e-03 0.0000000000000000e+00  -1.3490031944428944e-02 -2.6607991354594320e-03 0.0000000000000000e+00  -1.0637850960449655e-02 1.6634170976188628e-03 0.0000000000000000e+00  -1.3552974456206027e-02 1.4951513938494844e-03 0.0000000000000000e+00  4.1319579758609159e-03 2.5433436841621709e-03 0.0000000000000000e+00  -5.6724916373396481e-03 5.9749486651786291e-03 0.0000000000000000e+00  -5.9750325121447120e-03 5.6726547505711322e-03 0.0000000000000000e+00  5.6744190797037479e-03 -5.9650861339005275e-03 0.0000000000000000e+00  5.6774542844820084e-03 5.9480878255822800e-03 0.0000000000000000e+00  2.4374508349381510e-03 1.3734029539930623e-02 0.0000000000000000e+00  -1.1261839367103956e-02 3.7389841449981258e-03 0.0000000000000000e+00  -1.1355517475595198e-02 -2.3054647839240833e-03 0.0000000000000000e+00  -8.7859175738383649e-04 8.3490823362462468e-03 0.0000000000000000e+00  8.2970227426769367e-03 -2.7713411398973867e-03 0.0000000000000000e+00  -1.0645628184482061e-02 -7.0022330978882841e-04 0.0000000000000000e+00  -1.4941422308008325e-02 -8.3393397088033188e-08 0.0000000000000000e+00  -2.5261794533685627e-03 -1.2283696125090908e-02 0.0000000000000000e+00  5.2552411439578204e-03 1.0773425563305997e-02 0.0000000000000000e+00  -8.1460690998685638e-09 -1.4941819039842090e-02 0.0000000000000000e+00  2.9035528274912372e-03 -9.3268833638063230e-03 0.0000000000000000e+00  -6.1888611615381374e-03 -6.2491342767679787e-08 0.0000000000000000e+00  -7.9453479120230996e-03 -6.2786250381961081e-03 0.0000000000000000e+00  6.7295853224113406e-04 -1.3463347116445781e-02 0.0000000000000000e+00  8.5941110391934625e-03 -6.3774144912753404e-03 0.0000000000000000e+00  1.4808262503676572e-02 -1.2932530057449187e-03 0.0000000000000000e+00  7.9221647506186894e-03 -2.2161476462466486e-03 0.0000000000000000e+00  -2.4535282755756300e-03 1.3623426705637032e-02 0.0000000000000000e+00  -1.6279430728318052e-03 -6.8365028614701170e-03 0.0000000000000000e+00  -2.1154214307405571e-03 1.3817053232658208e-02 0.0000000000000000e+00  6.4654124742157416e-04 -1.5164930152031027e-02 0.0000000000000000e+00  -3.0642643661130801e-03 1.3053753755246148e-02 0.0000000000000000e+00  4.6869863242782143e-08 -1.4941920727117738e-02 0.0000000000000000e+00  -1.1994576831136021e-03 -7.7730431817486850e-03 0.0000000000000000e+00  1.5971706320212709e-02 1.4145263177933124e-04 0.0000000000000000e+00  6.1888401464813645e-03 4.7350641255123835e-08 0.0000000000000000e+00  -5.1647685161097263e-03 6.7930853890383969e-03 0.0000000000000000e+00  -4.4623366721256285e-03 -1.0156335649059734e-02 0.0000000000000000e+00  -4.8418561421154759e-03 -4.9709307937090969e-03 0.0000000000000000e+00  -4.3098652143897606e-08 -6.1890852396489773e-03 0.0000000000000000e+00  -6.0846137075817259e-03 -8.4490981417341751e-03 0.0000000000000000e+00  4.7568441062849727e-03 -1.1093636600939573e-02 0.0000000000000000e+00  7.6239952924777397e-03 5.4725618314636964e-03 0.0000000000000000e+00  -5.7732541861724336e-03 9.1699557453539457e-03 0.0000000000000000e+00  6.0178887971519763e-04 -1.4380283928969066e-02 0.0000000000000000e+00  9.5159568552191532e-03 -6.5561728342191095e-03 0.0000000000000000e+00  -1.4957780215986856e-02 -9.2107710819982130e-05 0.0000000000000000e+00  -1.3576150369691838e-02 -2.4608259340008669e-03 0.0000000000000000e+00  -1.2030184970985564e-02 3.6171676390767972e-03 0.0000000000000000e+00  3.6390794302620794e-03 -1.2018845661813679e-02 0.0000000000000000e+00  4.8736811931747188e-03 1.0892922363775958e-02 0.0000000000000000e+00  1.1535447038527508e-02 -1.7117325225136598e-04 0.0000000000000000e+00  -1.0534538578079296e-07 6.1888429387224123e-03 0.0000000000000000e+00  6.1988745621337207e-03 2.7907519491263844e-03 0.0000000000000000e+00  1.4654268743648283e-02 1.2074730675839453e-03 0.0000000000000000e+00  1.0924876928248353e-02 4.7000384741350994e-03 0.0000000000000000e+00  -7.9671955953985160e-08 -6.1887891153020597e-03 0.0000000000000000e+00  -9.7261227216612501e-03 -5.4172156436530852e-03 0.0000000000000000e+00  -3.2097924048808246e-03 -1.2899957800497939e-02 0.0000000000000000e+00  1.2631479427551655e-02 -5.0445639516561678e-06 0.0000000000000000e+00  -1.0908195690659244e-02 -1.9740982048462256e-03 0.0000000000000000e+00  1.1762507376487477e-02 4.3287056487822367e-03 0.0000000000000000e+00  -8.3368769250138485e-03 7.5812498147500912e-03 0.0000000000000000e+00  3.1660095485709399e-08 1.4941595646549935e-02 0.0000000000000000e+00  3.2685427565810102e-03 -1.2903906018183418e-02 0.0000000000000000e+00  1.1520775816579730e-02 -4.0398580460761372e-03 0.0000000000000000e+00  -5.4394663627936350e-03 3.5230598532896311e-03 0.0000000000000000e+00  -4.7750512514617826e-03 8.2647050193731496e-03 0.0000000000000000e+00  -2.0320117927926751e-03 -1.0915679717503745e-02 0.0000000000000000e+00  -8.1460690998685638e-09 -1.4941819039842090e-02 0.0000000000000000e+00  2.2952887428106527e-04 1.5587631496939263e-02 0.0000000000000000e+00  1.2587305050536927e-02 -3.2748436477134497e-03 0.0000000000000000e+00  -1.5893551603815902e-02 -2.7288804481772787e-05 0.0000000000000000e+00  -1.3610705846586467e-02 -2.5563446748745841e-03 0.0000000000000000e+00  -1.2199656590839233e-02 3.6735546676167435e-03 0.0000000000000000e+00  -9.0132722312828515e-03 -5.2072824203323077e-03 0.0000000000000000e+00  1.3109025914789312e-07 6.1888060719772825e-03 0.0000000000000000e+00  6.1888401464813645e-03 4.7350641255123835e-08 0.0000000000000000e+00  -6.1892738331323959e-03 -6.7493231060789197e-08 0.0000000000000000e+00  -7.9671955953985160e-08 -6.1887891153020597e-03 0.0000000000000000e+00  -2.8814446447759901e-04 -6.4707400711110389e-03 0.0000000000000000e+00  2.9554301899695303e-03 -1.1208013262881955e-02 0.0000000000000000e+00  -5.2552569881850180e-03 -1.0782908717642533e-02 0.0000000000000000e+00  -1.0398797531744588e-03 9.9231034578328523e-03 0.0000000000000000e+00  5.4782453135645659e-04 1.4821437825690622e-02 0.0000000000000000e+00  -1.2494766281432625e-03 6.0403194626167554e-03 0.0000000000000000e+00  1.3109025914789312e-07 6.1888060719772825e-03 0.0000000000000000e+00  -6.1892738331323959e-03 -6.7493231060789197e-08 0.0000000000000000e+00  9.1930272175378292e-03 -6.5395935801159006e-04 0.0000000000000000e+00  6.0725170824912252e-03 -3.2743624916968333e-03 0.0000000000000000e+00  1.1943209210833916e-02 3.9593634087615728e-03 0.0000000000000000e+00  -1.6220261342203347e-03 -1.4485029148093489e-02 0.0000000000000000e+00  -5.3043208150456152e-04 -1.5565072246343237e-02 0.0000000000000000e+00  -6.1046454825785402e-03 -3.9177625349440821e-03 0.0000000000000000e+00  -6.3662064180514573e-03 -1.7888228038272507e-04 0.0000000000000000e+00  -5.7237374976883717e-07 6.1946976846497413e-03 0.0000000000000000e+00  3.1660095485709399e-08 1.4941595646549935e-02 0.0000000000000000e+00  -1.3107852774553898e-07 1.4941636620817645e-02 0.0000000000000000e+00  6.1889352226122754e-03 8.7051014489411231e-08 0.0000000000000000e+00  -1.0534538578079296e-07 6.1888429387224123e-03 0.0000000000000000e+00  -1.4941422308008325e-02 -8.3393397088033188e-08 0.0000000000000000e+00  -6.1888611615381374e-03 -6.2491342767679787e-08 0.0000000000000000e+00  -1.4941539021003838e-02 -5.7785898399212782e-08 0.0000000000000000e+00  4.6869863242782143e-08 -1.4941920727117738e-02 0.0000000000000000e+00  -4.3098652143897606e-08 -6.1890852396489773e-03 0.0000000000000000e+00  -1.3107852774553898e-07 1.4941636620817645e-02 0.0000000000000000e+00  -1.4941539021003838e-02 -5.7785898399212782e-08 0.0000000000000000e+00  6.1889352226122754e-03 8.7051014489411231e-08 0.0000000000000000e+00  1.4941508084203251e-02 6.4134551820776204e-09 0.0000000000000000e+00  1.4941669246794716e-02 1.5636900583984888e-08 0.0000000000000000e+00  1.4941508084203251e-02 6.4134551820776204e-09 0.0000000000000000e+00  1.4941669246794716e-02 1.5636900583984888e-08 0.0000000000000000e+00  5.6677832087131093e-03 7.3875719131059085e-03 0.0000000000000000e+00  -1.1027022986933194e-02 2.3266465477353856e-03 0.0000000000000000e+00  1.0520437939142412e-02 -4.3416169363204929e-03 0.0000000000000000e+00  5.8289259706195235e-03 -5.8289915766155361e-03 0.0000000000000000e+00  7.6669064099281438e-03 -6.9603628608900696e-03 0.0000000000000000e+00  1.7747520574346014e-03 -4.3372201699717677e-03 0.0000000000000000e+00  8.5408684873222208e-03 2.4484836744363926e-03 0.0000000000000000e+00  -3.6038726767217925e-03 1.1954956707818232e-02 0.0000000000000000e+00  -1.4987231276194952e-02 2.0318000257834576e-04 0.0000000000000000e+00  -5.6421498628817261e-03 1.4522572879425270e-03 0.0000000000000000e+00  1.9180964800345434e-03 1.4254133344074190e-02 0.0000000000000000e+00  3.1091321717911587e-03 1.2539383053379826e-02 0.0000000000000000e+00  -2.5116751275895115e-03 1.0797079831731452e-02 0.0000000000000000e+00  -6.6871794330552953e-03 -4.2803296111280174e-03 0.0000000000000000e+00  -3.4742105465537078e-03 7.1228505960925135e-04 0.0000000000000000e+00  -6.0814039902858195e-03 -3.4169752381973989e-03 0.0000000000000000e+00  1.2742307666158185e-02 -1.8796941327209901e-03 0.0000000000000000e+00  4.0653836472479546e-03 -1.0415011879847044e-02 0.0000000000000000e+00  4.0174652545562108e-03 8.8870801849049302e-03 0.0000000000000000e+00  3.1243535528793017e-03 1.1244773470750492e-02 0.0000000000000000e+00  -9.7422647261990666e-03 4.8280476931972568e-03 0.0000000000000000e+00  -1.1255161848107674e-03 1.4481684417502001e-03 0.0000000000000000e+00  1.8316368320696528e-04 1.5117680769587806e-02 0.0000000000000000e+00  5.3305611576169186e-04 -1.8042670212070214e-03 0.0000000000000000e+00  -4.7302905061305054e-03 1.0617241913896954e-02 0.0000000000000000e+00  -9.9355751895488665e-03 -6.1580541675786242e-03 0.0000000000000000e+00  2.5275542998164577e-03 -1.3477235435297242e-02 0.0000000000000000e+00  -2.6986867441543046e-03 -1.3391446500202386e-02 0.0000000000000000e+00  7.1794138172519796e-03 8.7202424345168058e-03 0.0000000000000000e+00  -2.7370290862260057e-04 7.4526728419532663e-03 0.0000000000000000e+00  2.9970508772956925e-03 -4.5615344530534454e-03 0.0000000000000000e+00  1.0346007893320897e-02 -5.4620565582341532e-03 0.0000000000000000e+00  4.0191127403874328e-03 -1.0318186207208918e-02 0.0000000000000000e+00  -7.8543019128552750e-03 -8.2675802645069928e-03 0.0000000000000000e+00  -6.3108722656415135e-03 5.0777669088767170e-03 0.0000000000000000e+00  -4.0573977039918569e-03 1.0205532474065630e-02 0.0000000000000000e+00  4.4611798679073285e-03 7.8727030710262283e-03 0.0000000000000000e+00  -1.4660147310349064e-02 1.5119193424814768e-03 0.0000000000000000e+00  8.9115141261704670e-03 1.9320418775242004e-03 0.0000000000000000e+00  7.0005989410358510e-03 8.5192326724640253e-03 0.0000000000000000e+00  -2.5454199495887220e-03 1.2885993141116291e-02 0.0000000000000000e+00  -1.4066098828097232e-02 1.0922614311361012e-03 0.0000000000000000e+00  1.5159362905160227e-02 -6.2021329134602564e-04 0.0000000000000000e+00  2.8299557670015355e-03 1.0533826665365681e-02 0.0000000000000000e+00  1.0524418796221699e-02 3.0377181610420846e-03 0.0000000000000000e+00  5.1576926099828387e-03 2.2214371994024045e-03 0.0000000000000000e+00  2.8231610224557207e-03 6.9741782747454496e-03 0.0000000000000000e+00  -1.1936146190281372e-02 4.0910020111149239e-03 0.0000000000000000e+00  -9.4497561000140475e-03 1.0629710702020514e-03 0.0000000000000000e+00  2.6603566967083837e-03 -9.8659552202419523e-03 0.0000000000000000e+00  -9.2109815420693677e-05 1.5266491675011436e-02 0.0000000000000000e+00  -1.5294547391719586e-02 -3.4749523241283238e-04 0.0000000000000000e+00  7.5080256597700990e-04 -1.5197769299930580e-02 0.0000000000000000e+00  -8.6883033313728383e-04 -1.5235128735416839e-02 0.0000000000000000e+00  3.3402150816189683e-04 -3.1246118678920900e-03 0.0000000000000000e+00  6.0731092828166236e-03 9.7176001161804297e-03 0.0000000000000000e+00  -1.0045601516018821e-02 4.0784114720749769e-03 0.0000000000000000e+00  -1.2988994969357242e-02 2.3254497222469071e-03 0.0000000000000000e+00  -3.6990205798173499e-03 1.1807644260295708e-02 0.0000000000000000e+00  -6.5552902595672859e-04 8.3079857376366691e-03 0.0000000000000000e+00  -4.3575852261355818e-04 1.2632186003280255e-02 0.0000000000000000e+00  -1.2034167430634481e-02 -3.2456710797182852e-03 0.0000000000000000e+00  -3.0026170379404654e-03 -1.2034195465041269e-02 0.0000000000000000e+00  4.8263667326932519e-03 -1.9920958854579771e-03 0.0000000000000000e+00  3.6793419502214016e-03 -9.1363500656537790e-03 0.0000000000000000e+00  1.1218132304642544e-02 -3.6152150337304349e-03 0.0000000000000000e+00  5.2218120634029341e-04 -1.3728223501576009e-02 0.0000000000000000e+00  1.4490279699922545e-02 1.6774274781400406e-03 0.0000000000000000e+00  1.2125840333902330e-02 -3.7974546184676200e-03 0.0000000000000000e+00  -1.2722370199253317e-02 -2.0944934979442000e-03 0.0000000000000000e+00  5.9653860043049215e-03 1.0202405446449164e-02 0.0000000000000000e+00  3.5340888791863222e-03 1.1419466838781136e-02 0.0000000000000000e+00  3.9618908714688310e-04 1.4380143184638807e-02 0.0000000000000000e+00  3.9294743481040540e-05 1.5700105333575076e-02 0.0000000000000000e+00  -7.8473966571595687e-04 1.5361163735615649e-02 0.0000000000000000e+00  -4.7374448281696704e-03 9.7439637267224977e-03 0.0000000000000000e+00  -9.1126875769861563e-03 6.9809824574575442e-03 0.0000000000000000e+00  -1.3730404564047319e-02 5.9535866940394584e-04 0.0000000000000000e+00  7.4605480321488704e-03 1.1714191847000562e-03 0.0000000000000000e+00  1