<?xml version="1.0"?>
<VTKFile type="UnstructuredGrid"  version="0.1"  >
<UnstructuredGrid>
<Piece  NumberOfPoints="5315" NumberOfCells="10372">
<Points>
<DataArray  type="Float64"  NumberOfComponents="3"  format="ascii">-1 -1 0  1 -1 0  1 1 0  -1 1 0  0 -1 0  1 0 0  0 1 0  -1 0 0  0 0 0  -1 -0.5 0  -0.5 -1 0  -0.5 1 0  -1 0.5 0  1 -0.5 0  0.5 -1 0  1 0.5 0  0.5 1 0  0.4166666666666666 -0.4166666666666667 0  -0.4166666666666667 0.4166666666666667 0  -0.25 -0.5 0  0.5 0.25 0  -0.4861111111111112 -0.06944444444444445 0  0.0732758620689655 0.507183908045977 0  -0.625 -0.625 0  0.625 0.625 0  0.7380952380952381 -0.25 0  -0.7099116161616161 0.2105429292929293 0  -0.25 0.7380952380952381 0  0.105392156862745 -0.6348039215686275 0  0.6770833333333334 -0.6770833333333333 0  -0.6770833333333334 0.6770833333333334 0  0.3472222222222222 -0.06944444444444446 0  -0.7264957264957265 -0.3044871794871795 0  0.3141940982507127 0.7297313660835709 0  0.02049587951122483 -0.3227479397556124 0  -0.2690972222222223 0.1475694444444444 0  0.3859500089908372 -0.7274430156831472 0  -0.2228477945123298 -0.1761765495248019 0  0.2182539682539683 0.1884920634920635 0  0.75 0.375 0  -0.145442219440968 -0.7602211097204841 0  0.7088913690476191 0.0427827380952381 0  -0.75 -1 0  -1 -0.75 0  1 0.75 0  0.75 1 0  -0.7439982703698937 -0.04614153195464455 0  -0.4609235096577606 -0.3356498099556895 0  0.4063134471431929 0.4895621842856023 0  0.25 -1 0  -0.25 -1 0  -0.75 1 0  0.75 -1 0  -1 -0.25 0  -1 0.25 0  1 -0.25 0  -0.25 1 0  1 -0.75 0  -1 0.75 0  0.25 1 0  1 0.25 0  -0.4041423272138783 -0.7597141090712928 0  0.06500839607911253 0.7578103030529481 0  -0.1572801182352047 0.3838997021864289 0  -0.6528005242053915 0.4409494757946086 0  -0.4930160984848485 0.1544744318181818 0  -0.4732142857142858 0.7752976190476191 0  0.6398809523809523 -0.4538690476190476 0  0.5166054117396399 -0.2161233620965164 0  -0.002273787244753427 0.2232363985975174 0  0.1500564496765022 -0.1524955293952667 0  0.2016720420046758 -0.4410343282803009 0  -0.08495178036419618 0.6274139771124571 0  -0.8367311471133162 0.3642591720794645 0  -0.8333333333333334 -0.625 0  -0.594323836800685 -0.8231079456002283 0  -0.4466957714776065 -0.5349126855671806 0  0.8125 0.5625 0  0.78125 0.78125 0  0.5091392650016769 0.7947130883338923 0  0.125 -0.8382681931833136 0  -0.8184523809523809 -0.8184523809523809 0  -0.07781530426104531 -0.5819319697006881 0  0.5085055196703295 0.04967610411902112 0  0.2918471072074933 -0.276017202318847 0  0.5120763537765269 -0.5898771553229597 0  0.625 -0.8585349462365591 0  0.8158532234335381 -0.8158532234335381 0  -0.5198088446315396 0.5739411553684605 0  -0.8585349462365591 0.625 0  -0.8150493805516597 0.8156205699829586 0  0.8585349462365591 -0.625 0  -0.2688268348649726 0.5439331383603209 0  0.8242100426758139 -0.4436043596336612 0  0.5833756314287952 0.4479378157143976 0  0.8690476190476191 -0.125 0  -0.125 0.8690476190476191 0  -0.8692745600729823 0.125 0  0.8696725120759167 0.125 0  -0.625 0.8711516477451908 0  0.2339522463269718 0.3879558377955778 0  0.2453709502295031 0.5655822922838026 0  0.1730610651637797 0.02021709580868947 0  0.3245402594056757 -0.5644672020485209 0  -0.7291666666666666 -0.4816595441595442 0  -1 -0.375 0  -0.5811140848639904 -0.2127276307675001 0  0.673332592838314 0.2158348143233718 0  0.375 1 0  -0.5714768890989919 0.2985103444040069 0  -1 -0.125 0  -0.8453692574786325 -0.1875 0  -0.3144549134065865 -0.02408675326008025 0  -0.2898414972096258 -0.3336092734780093 0  -0.1075052092206287 -0.4224330421314983 0  -0.05043970703604117 -0.1652278959397459 0  0.6459672950297897 -0.1113415301525317 0  0.4645210271029513 0.6398480556579343 0  0.3512863754411909 0.0937979496253573 0  -0.6063160985568274 0.03891469652249891 0  -0.3428819444444445 0.8690476190476191 0  0.625 1 0  -0.1602164796159982 0.02697860906625157 0  0.04648110064133829 -0.4808416424239687 0  1 0.875 0  -0.3836102479201657 0.6484936449177356 0  -0.3776011723096096 0.263078478984336 0  -0.6024978259969829 -0.3949628096211138 0  0.125 1 0  0.2010781308272777 0.8456221018461906 0  0.2822509696388829 -0.845902544691141 0  -0.3285533674953515 -0.6289773550938936 0  0.3461306793221754 0.278777492464833 0  0.4737475672408696 -0.8508448959534423 0  0.2384632828836344 -0.7029523187242811 0  -0.004777287059791593 0.3759269695907358 0  -0.8499735021850066 -0.3912320205328522 0  0.1222536293721587 0.2963971539625205 0  -0.3769456520999688 -0.203572526805711 0  -0.2749617205755651 -0.8464290792698902 0  0.004805888512766143 -0.747174355248311 0  -0.125 -1 0  -0.06001061822252458 -0.8724007765244854 0  0.875 0.4375 0  0.854421179608893 0.271342359217786 0  0.875 1 0  -0.1499861095763589 0.2358309656934888 0  0.3381943639137225 0.8663061796405532 0  -0.7853090110442228 0.4998412775277108 0  0.7398165998560814 -0.5535192694951373 0  0.1580042122341573 -0.3100246140259917 0  -0.7291666666666667 -0.7142857142857142 0  -0.375 -1 0  0.6483368386154684 0.8514905990110488 0  -0.1295370103291928 -0.2826118305021242 0  0.07458201853700455 0.1123894386563915 0  0.6146465857036327 -0.3161203659316075 0  0.5551898493894731 -0.740296118159085 0  0.375 -1 0  0.482702798370208 -0.084133350091034 0  0.87890625 0.68359375 0  -0.05917195534525846 0.4971092425697621 0  0.1260710309213975 0.6343750312956699 0  0.8690476190476191 -0.3077066815262848 0  -0.2912010232560567 0.3668168386732139 0  -0.875 1 0  -1 0.875 0  1 -0.875 0  0.875 -1 0  -0.8689564281364567 -0.006189266075306407 0  -0.7449425635110547 0.08458938160051771 0  -0.7150266761936593 -0.1739444581417552 0  -0.5260034831318311 -0.711099823962112 0  -0.4724626808827322 -0.871722230709409 0  0.4734436795977052 0.377714794132168 0  -0.875 -1 0  -1 -0.875 0  0.6927189078571988 0.5156567235715964 0  -0.3742497615796874 -0.4296005251260107 0  -0.1969436423297711 -0.6387157229772615 0  -0.6179496409766825 -0.08933356056510935 0  -0.424405057115988 0.04452428810878029 0  -0.08479048335844169 0.1279607007132633 0  0.003830300099055113 0.8712085230656206 0  0.8748778838820267 -1.379218479898026e-05 0  -0.375 1 0  -0.625 1 0  1 0.125 0  -0.125 1 0  1 -0.375 0  1 -0.125 0  1 -0.625 0  0.625 -1 0  0.125 -1 0  -0.625 -1 0  -1 -0.625 0  -1 0.125 0  -1 0.375 0  -1 0.625 0  1 0.375 0  1 0.625 0  0.6325660748712082 0.3335187599557389 0  -0.06420945895056573 0.7549874027425891 0  -0.8769015540914771 0.2478802253893416 0  0.871875 0.871875 0  -0.6868091492840067 0.3270978624973681 0  -0.5363597469565949 0.412994850055505 0  -0.6803734992638302 0.5574295000651103 0  -0.7076253581162534 -0.8803439094224437 0  -0.8778089002295137 -0.5106896447504627 0  -0.3860184984222981 0.530566778071246 0  0.6109900617121508 0.1128453077697081 0  0.3896945134930274 -0.1915382873255086 0  0.7605656944697778 -0.06822134873122943 0  0.3576151269893478 0.5948388411612135 0  -0.5689902680792265 -0.5143596830118065 0  0.6262446286847614 -0.5735657901943212 0  0.2030558252325225 -0.5625263842513452 0  0.6123273142928579 0.7407533260723429 0  0.4016460890123554 -0.3042863223111857 0  -0.59039693199147 0.7578418819188018 0  0.7276932493917544 -0.3705808024528924 0  0.5222536818742854 -0.4713886230400014 0  -0.5101986527137737 0.8848365765607674 0  0.510560172809238 0.5356013299918891 0  -0.3603569195756083 0.75823710606415 0  0.1967279277813232 0.728226870058472 0  -0.6086880986371127 0.1545624071548516 0  -0.38105366729386 0.1511189987807864 0  -0.2944659463671584 -0.7359061804869591 0  0.5060729154966499 -0.3475227845833823 0  -0.09281616240412746 -0.06197858250969457 0  0.7649739583333334 0.6673177083333334 0  0.7628906249999999 0.890234375 0  -0.2666864184909611 0.2585504071132311 0  0.3635064892129658 0.3878003602709461 0  -0.2339409722222222 0.8901937905844155 0  -0.1718792125974916 -0.8957733325456778 0  0.1001768566329531 0.4023510017391879 0  0.3120260172693757 -0.4540546875576884 0  0.7804062804433681 0.1896628610854537 0  0.4087715451998049 0.187961780041608 0  -0.1584963477271457 0.5451611892421655 0  -0.8926817849258324 0.463022006336401 0  0.2338091473445219 -0.07576267331277289 0  0.08171112182813692 -0.2349087687359925 0  0.04635385178956847 -0.1044635073718474 0  -0.4377391632114205 -0.6448874471423088 0  -0.1907678351227189 0.6480215912813945 0  0.300605946475244 0.4741444604171038 0  -0.2145033720757486 -0.06751709909419711 0  0.6069191921170397 -0.005492331448357812 0  0.0214718770761248 0.6032397936031719 0  0.5476675683364878 0.8992752415326501 0  0.4387475014316537 0.9093708953002239 0  -0.4932997685306436 -0.4381009159993523 0  0.2515197695339056 -0.1791673369138964 0  -0.7291666666666667 -0.6088789682539681 0  -0.9166666666666667 -0.6875 0  0.620579540363709 -0.2122431523583302 0  -0.484950136419973 0.6719440339397442 0  0.2857044415400258 0.0137589173127316 0  -0.8945708364098356 -0.288306105327986 0  0.4043102720140535 0.7842914560451557 0  0.04123256238752064 -0.9026968245801402 0  0.2003676884403109 -0.9091888601740487 0  0.1068775558538842 -0.7373377130403223 0  -0.4804566783514427 -0.1763307203045643 0  0.108286342087769 -0.3993789328997278 0  -0.191883080105361 -0.3640821726430649 0  -0.07025064492006244 0.2984876656890053 0  -0.7039324641409584 0.788312126296613 0  -0.7311286585775438 0.8932502354831682 0  0.5171409396884947 0.1503852691889257 0  0.4229392823658633 -0.003216522184234835 0  -0.5621736087218259 -0.919558629836806 0  -0.626474064879544 -0.7266572613636506 0  0.2446828746617422 0.2867616783302419 0  0.1759429608742923 0.4776611759306416 0  -0.3468240303741654 -0.5260416435617549 0  -0.7465808808425306 0.4069574477998361 0  -0.7819962170660292 0.2802441065650652 0  -0.3742623214119594 -0.8547800509641984 0  0.1014498009713561 0.8506721983266377 0  0.4285217620918213 -0.5230190595570253 0  0.4091738370487775 -0.6256346204225141 0  0.78125 0.46875 0  0.90625 0.53125 0  -0.4791801348852565 0.2553992655702126 0  0.7843318610782772 -0.7086046956885941 0  0.8909728264971901 -0.7355183796514634 0  0.7041908166528879 -0.7830649143180282 0  0.731182135
[...]
<PointData  Vectors="f_21"> 
<DataArray  type="Float64"  Name="f_21"  NumberOfComponents="3" format="ascii">-1.2229175767328040e-08 -4.4874750583491923e-08 0.0000000000000000e+00  -1.2229175767328040e-08 -4.4874750583491923e-08 0.0000000000000000e+00  -1.2229175767328040e-08 -4.4874750583491923e-08 0.0000000000000000e+00  -1.2229175767328040e-08 -4.4874750583491923e-08 0.0000000000000000e+00  -2.6056086680207157e-08 -5.9176389103217498e-08 0.0000000000000000e+00  4.5210599522419288e-09 -3.8270858527835874e-08 0.0000000000000000e+00  -2.6056086680207157e-08 -5.9176389103217498e-08 0.0000000000000000e+00  4.5210599522419288e-09 -3.8270858527835874e-08 0.0000000000000000e+00  -1.6443590406541675e-08 -4.3490901234890363e-08 0.0000000000000000e+00  -2.2901771520691745e-03 -3.7189877043316730e-08 0.0000000000000000e+00  -1.5332430014010579e-08 2.2901366881520717e-03 0.0000000000000000e+00  -1.5332430014010579e-08 2.2901366881520717e-03 0.0000000000000000e+00  2.2901738106204696e-03 -3.6200762547094648e-08 0.0000000000000000e+00  -2.2901771520691745e-03 -3.7189877043316730e-08 0.0000000000000000e+00  -1.5625745761868584e-08 -2.2902209166757591e-03 0.0000000000000000e+00  2.2901738106204696e-03 -3.6200762547094648e-08 0.0000000000000000e+00  -1.5625745761868584e-08 -2.2902209166757591e-03 0.0000000000000000e+00  5.7254555523307701e-04 5.7249777095483875e-04 0.0000000000000000e+00  -5.7256747398973305e-04 -5.7257593610998030e-04 0.0000000000000000e+00  1.6194019800019122e-03 -3.6158113097058466e-08 0.0000000000000000e+00  -2.0061205448912344e-09 1.6193565103801632e-03 0.0000000000000000e+00  2.1629650880299926e-05 -2.2338028910058121e-03 0.0000000000000000e+00  -2.2291955649437847e-03 -1.1850581699738418e-05 0.0000000000000000e+00  -8.0970737618154620e-04 8.0965603794251118e-04 0.0000000000000000e+00  8.0968759946132369e-04 -8.0974093258783203e-04 0.0000000000000000e+00  -1.1014691267297871e-03 1.1870604418989987e-03 0.0000000000000000e+00  8.6190999608670715e-04 -1.4283004607605627e-03 0.0000000000000000e+00  -1.1871236274307740e-03 1.1014167665646308e-03 0.0000000000000000e+00  1.9744518560852352e-03 -3.0599774789110659e-04 0.0000000000000000e+00  -1.0270056205148189e-03 -1.0270459201924737e-03 0.0000000000000000e+00  1.0269834087074288e-03 1.0269659071171571e-03 0.0000000000000000e+00  2.2888254511051233e-04 1.9832095902056930e-03 0.0000000000000000e+00  -1.2221660340383832e-03 -9.9964221019806687e-04 0.0000000000000000e+00  -9.4750399331828834e-04 -1.2625767449531658e-03 0.0000000000000000e+00  1.9401471710499153e-03 7.7833022461160480e-05 0.0000000000000000e+00  -6.7943549352213900e-04 -1.5327462528700432e-03 0.0000000000000000e+00  6.0665716851613825e-04 -1.4054157247537554e-03 0.0000000000000000e+00  9.2066623955696291e-04 -1.2552925746288502e-03 0.0000000000000000e+00  -9.8939406726724862e-04 1.2031447805096282e-03 0.0000000000000000e+00  1.4961314693092234e-03 6.1966963313033602e-04 0.0000000000000000e+00  1.4058499837289269e-03 7.3698083700526440e-04 0.0000000000000000e+00  1.8725345631712722e-04 1.7980594220510741e-03 0.0000000000000000e+00  -2.1623240498998910e-08 1.6193678912652485e-03 0.0000000000000000e+00  -1.6194076650338492e-03 -3.4812244320524334e-08 0.0000000000000000e+00  1.6193819388247424e-03 -3.6009515659628314e-08 0.0000000000000000e+00  -2.1147020709178604e-08 -1.6194361024152203e-03 0.0000000000000000e+00  -2.2945735878950694e-04 -1.6323856377035277e-03 0.0000000000000000e+00  2.4387621840971739e-04 -1.1221556547690976e-03 0.0000000000000000e+00  -6.6401079936703896e-04 7.1793533993508681e-05 0.0000000000000000e+00  -1.6536355485815006e-08 -1.6194514046178668e-03 0.0000000000000000e+00  -1.2043238468748656e-08 1.6193545423190310e-03 0.0000000000000000e+00  -2.1623240498998910e-08 1.6193678912652485e-03 0.0000000000000000e+00  -2.1147020709178604e-08 -1.6194361024152203e-03 0.0000000000000000e+00  -1.6193925023406679e-03 -3.9189676149790059e-08 0.0000000000000000e+00  1.6193999008060208e-03 -3.2223348235602904e-08 0.0000000000000000e+00  -1.6193925023406679e-03 -3.9189676149790059e-08 0.0000000000000000e+00  -1.2043238468748656e-08 1.6193545423190310e-03 0.0000000000000000e+00  -1.6194076650338492e-03 -3.4812244320524334e-08 0.0000000000000000e+00  1.6193819388247424e-03 -3.6009515659628314e-08 0.0000000000000000e+00  -1.6536355485815006e-08 -1.6194514046178668e-03 0.0000000000000000e+00  1.6193999008060208e-03 -3.2223348235602904e-08 0.0000000000000000e+00  4.6545274904996684e-04 1.5929431978179225e-03 0.0000000000000000e+00  -1.5463827637630650e-03 -3.3644794344788657e-04 0.0000000000000000e+00  -1.8836185332699131e-03 -3.8747105345041696e-04 0.0000000000000000e+00  1.0394827212502778e-03 -3.7471171129223254e-04 0.0000000000000000e+00  -2.3439235372461891e-05 -2.0252857217947597e-03 0.0000000000000000e+00  -1.2488575393532583e-04 1.7366435657588989e-03 0.0000000000000000e+00  -9.6410979128683304e-04 2.9926552512325022e-04 0.0000000000000000e+00  -7.4998742153250004e-05 1.7797844628223735e-03 0.0000000000000000e+00  -1.4776611605175829e-03 -1.2551791108611212e-05 0.0000000000000000e+00  9.4053410615407580e-04 9.2293382672493148e-04 0.0000000000000000e+00  1.8141194785070449e-03 2.4967736122510865e-04 0.0000000000000000e+00  -2.0344804940276772e-03 2.3531204795664422e-04 0.0000000000000000e+00  1.8167620765931628e-03 -4.6488677441877804e-04 0.0000000000000000e+00  -1.8323837902347812e-03 4.3816523136928800e-04 0.0000000000000000e+00  -3.5281910845068369e-04 1.8607156926337255e-03 0.0000000000000000e+00  3.7942300202248693e-04 2.4714360584158303e-04 0.0000000000000000e+00  1.8676117747720670e-03 -2.4825079683483779e-04 0.0000000000000000e+00  1.1230720734852334e-03 -1.1231243588140853e-03 0.0000000000000000e+00  3.9504606218083931e-05 -1.8294700998219011e-03 0.0000000000000000e+00  1.0293771787168303e-03 -7.6575030874934927e-04 0.0000000000000000e+00  -1.0408041411957595e-03 1.0407633022617004e-03 0.0000000000000000e+00  2.1488742822770575e-03 1.4105332316715312e-04 0.0000000000000000e+00  9.5184813968079122e-06 2.2614895314543261e-03 0.0000000000000000e+00  1.0622451036249852e-03 1.1760285171821367e-03 0.0000000000000000e+00  -8.3440666161094048e-05 -6.3767918300446005e-04 0.0000000000000000e+00  -3.7681591386601348e-04 -1.9103510228140632e-03 0.0000000000000000e+00  -1.0484673995835739e-03 -1.0484924036723200e-03 0.0000000000000000e+00  1.3860190186642605e-04 5.2615334487883677e-04 0.0000000000000000e+00  1.9102974974190578e-03 3.7676878417631745e-04 0.0000000000000000e+00  1.0478814892348485e-03 1.0519648064402113e-03 0.0000000000000000e+00  -1.9103127499864154e-03 -3.7684152083500023e-04 0.0000000000000000e+00  -1.5063967694235580e-03 2.3553319819406775e-04 0.0000000000000000e+00  -1.9192009913751543e-03 2.1171204095643458e-04 0.0000000000000000e+00  5.8510823056676358e-04 3.6013552020328597e-04 0.0000000000000000e+00  -8.0327389633330995e-04 8.4606425955365200e-04 0.0000000000000000e+00  -8.4611098961443680e-04 8.0324476055975878e-04 0.0000000000000000e+00  8.0354597864809748e-04 -8.4475657716049778e-04 0.0000000000000000e+00  8.0397670609375939e-04 8.4226024792513491e-04 0.0000000000000000e+00  3.4514000662714557e-04 1.9448179503030532e-03 0.0000000000000000e+00  -1.5947827026530034e-03 5.2942674976461188e-04 0.0000000000000000e+00  -1.6080450639032241e-03 -3.2650209236395790e-04 0.0000000000000000e+00  -1.2441123166991556e-04 1.1822458136555223e-03 0.0000000000000000e+00  1.1749144272974099e-03 -3.9248765174124058e-04 0.0000000000000000e+00  -1.5075168188749721e-03 -9.9192859451238728e-05 0.0000000000000000e+00  -2.1158415824902282e-03 -3.9134729527655795e-08 0.0000000000000000e+00  -3.5772785253701810e-04 -1.7394930339842446e-03 0.0000000000000000e+00  7.4418537073347535e-04 1.5255650359273722e-03 0.0000000000000000e+00  -1.7171141032537392e-08 -2.1159003172953666e-03 0.0000000000000000e+00  4.1115437984855289e-04 -1.3208135501177065e-03 0.0000000000000000e+00  -8.7639678492282172e-04 -4.0880146786255600e-08 0.0000000000000000e+00  -1.1251390665062953e-03 -8.8912457023354596e-04 0.0000000000000000e+00  9.5306785832816014e-05 -1.9065641577163180e-03 0.0000000000000000e+00  1.2169991695303217e-03 -9.0313058672364551e-04 0.0000000000000000e+00  2.0969599110728975e-03 -1.8315357729512216e-04 0.0000000000000000e+00  1.1218683470956084e-03 -3.1385572900131904e-04 0.0000000000000000e+00  -3.4742406955435781e-04 1.9291655630282612e-03 0.0000000000000000e+00  -2.3054991180481373e-04 -9.6813216342723639e-04 0.0000000000000000e+00  -2.9956389770020012e-04 1.9565596417559622e-03 0.0000000000000000e+00  9.1560123718028441e-05 -2.1475099426199627e-03 0.0000000000000000e+00  -4.3392862403962719e-04 1.8484864807185122e-03 0.0000000000000000e+00  -4.1457499072101513e-09 -2.1159004460134358e-03 0.0000000000000000e+00  -1.6982864559500697e-04 -1.1007661094388531e-03 0.0000000000000000e+00  2.2616991140535347e-03 1.9992392670514002e-05 0.0000000000000000e+00  8.7638423788526543e-04 -3.1389055714189533e-08 0.0000000000000000e+00  -7.3137626460268422e-04 9.6191580769625475e-04 0.0000000000000000e+00  -6.3190652407758092e-04 -1.4382665083826820e-03 0.0000000000000000e+00  -6.8567645883507332e-04 -7.0396995541561775e-04 0.0000000000000000e+00  -1.8097366650605002e-08 -8.7646033812262161e-04 0.0000000000000000e+00  -8.6165134634238864e-04 -1.1964968690315783e-03 0.0000000000000000e+00  6.7359181583420246e-04 -1.5709869936932845e-03 0.0000000000000000e+00  1.0796090708216190e-03 7.7491649388569011e-04 0.0000000000000000e+00  -8.1756309159562962e-04 1.2984904042202502e-03 0.0000000000000000e+00  8.5198440339676661e-05 -2.0364121139483837e-03 0.0000000000000000e+00  1.3475242159216880e-03 -9.2845604483978090e-04 0.0000000000000000e+00  -2.1181494335009458e-03 -1.3107540973024377e-05 0.0000000000000000e+00  -1.9225025799069664e-03 -3.4849514377545914e-04 0.0000000000000000e+00  -1.7035738929747461e-03 5.1216534190485770e-04 0.0000000000000000e+00  5.1534489711284033e-04 -1.7019970850494835e-03 0.0000000000000000e+00  6.9015093571627643e-04 1.5424847536340688e-03 0.0000000000000000e+00  1.6335112005739459e-03 -2.4284714151210970e-05 0.0000000000000000e+00  -2.1335696761325156e-08 8.7635932444844787e-04 0.0000000000000000e+00  8.7781338144824069e-04 3.9513453587410285e-04 0.0000000000000000e+00  2.0751792595208145e-03 1.7094189434361618e-04 0.0000000000000000e+00  1.5470507887741295e-03 6.6552463255189456e-04 0.0000000000000000e+00  -2.4836145326392577e-08 -8.7643380061635753e-04 0.0000000000000000e+00  -1.3772892742191399e-03 -7.6716393919547157e-04 0.0000000000000000e+00  -4.5455224996018747e-04 -1.8267638394049420e-03 0.0000000000000000e+00  1.7887063144230888e-03 -7.4802759890379763e-07 0.0000000000000000e+00  -1.5446842138663655e-03 -2.7956366122053946e-04 0.0000000000000000e+00  1.6656434524121332e-03 6.1294275598529899e-04 0.0000000000000000e+00  -1.1805825312586125e-03 1.0735250208456662e-03 0.0000000000000000e+00  -1.3750509502706845e-08 2.1158081101418764e-03 0.0000000000000000e+00  4.6284933060679502e-04 -1.8273516746942916e-03 0.0000000000000000e+00  1.6314488150769007e-03 -5.7211273967547576e-04 0.0000000000000000e+00  -7.7028069958239064e-04 4.9885201201585851e-04 0.0000000000000000e+00  -6.7617041025710533e-04 1.1703263061797269e-03 0.0000000000000000e+00  -2.8776420574124872e-04 -1.5457957540290677e-03 0.0000000000000000e+00  -1.7171141032537392e-08 -2.1159003172953666e-03 0.0000000000000000e+00  3.2503143365828178e-05 2.2073207824795825e-03 0.0000000000000000e+00  1.7824323626132719e-03 -4.6376610284054750e-04 0.0000000000000000e+00  -2.2506373658706925e-03 -3.8939738463360761e-06 0.0000000000000000e+00  -1.9274044489248155e-03 -3.6205289812258804e-04 0.0000000000000000e+00  -1.7275644720670404e-03 5.2017446802448200e-04 0.0000000000000000e+00  -1.2763475415409264e-03 -7.3742955434220588e-04 0.0000000000000000e+00  2.8904621594754848e-09 8.7637661129604633e-04 0.0000000000000000e+00  8.7638423788526543e-04 -3.1389055714189533e-08 0.0000000000000000e+00  -8.7643463321472343e-04 -5.0624586352392082e-08 0.0000000000000000e+00  -2.4836145326392577e-08 -8.7643380061635753e-04 0.0000000000000000e+00  -4.0821518308524492e-05 -9.1630123403760094e-04 0.0000000000000000e+00  4.1850768173424662e-04 -1.5872104876348395e-03 0.0000000000000000e+00  -7.4418839094601765e-04 -1.5269724928886981e-03 0.0000000000000000e+00  -1.4727606604810934e-04 1.4051536619705189e-03 0.0000000000000000e+00  7.7592705426212763e-05 2.0987931852487901e-03 0.0000000000000000e+00  -1.7693731835755289e-04 8.5530455213488098e-04 0.0000000000000000e+00  2.8904621594754848e-09 8.7637661129604633e-04 0.0000000000000000e+00  -8.7643463321472343e-04 -5.0624586352392082e-08 0.0000000000000000e+00  1.3018033204792042e-03 -9.2634286718643830e-05 0.0000000000000000e+00  8.5993207904037092e-04 -4.6372686371776617e-04 0.0000000000000000e+00  1.6912589770476261e-03 5.6064567452396394e-04 0.0000000000000000e+00  -2.2969643411171358e-04 -2.0512563061452342e-03 0.0000000000000000e+00  -7.5117423527619326e-05 -2.2041932898599279e-03 0.0000000000000000e+00  -8.6445714102107839e-04 -5.5485266942841124e-04 0.0000000000000000e+00  -9.0150628612174310e-04 -2.5366419745057878e-05 0.0000000000000000e+00  -7.9310136841206595e-08 8.7717757172658256e-04 0.0000000000000000e+00  -1.3750509502706845e-08 2.1158081101418764e-03 0.0000000000000000e+00  -1.7430673611399731e-08 2.1158136572662399e-03 0.0000000000000000e+00  8.7641348919543236e-04 -2.5294704105120221e-08 0.0000000000000000e+00  -2.1335696761325156e-08 8.7635932444844787e-04 0.0000000000000000e+00  -2.1158415824902282e-03 -3.9134729527655795e-08 0.0000000000000000e+00  -8.7639678492282172e-04 -4.0880146786255600e-08 0.0000000000000000e+00  -2.1158545293145001e-03 -3.3168218337996685e-08 0.0000000000000000e+00  -4.1457499072101513e-09 -2.1159004460134358e-03 0.0000000000000000e+00  -1.8097366650605002e-08 -8.7646033812262161e-04 0.0000000000000000e+00  -1.7430673611399731e-08 2.1158136572662399e-03 0.0000000000000000e+00  -2.1158545293145001e-03 -3.3168218337996685e-08 0.0000000000000000e+00  8.7641348919543236e-04 -2.5294704105120221e-08 0.0000000000000000e+00  2.1158437140161765e-03 -3.2216412616401567e-08 0.0000000000000000e+00  2.1158392706346640e-03 -3.2402107610809738e-08 0.0000000000000000e+00  2.1158437140161765e-03 -3.2216412616401567e-08 0.0000000000000000e+00  2.1158392706346640e-03 -3.2402107610809738e-08 0.0000000000000000e+00  8.0259453359656646e-04 1.0461025333983389e-03 0.0000000000000000e+00  -1.5615296986240294e-03 3.2944022798508135e-04 0.0000000000000000e+00  1.4897876541906136e-03 -6.1484742362128450e-04 0.0000000000000000e+00  8.2541405218863201e-04 -8.2547255115695130e-04 0.0000000000000000e+00  1.0856847394593817e-03 -9.8567318991459800e-04 0.0000000000000000e+00  2.5132739082118805e-04 -6.1421865055107669e-04 0.0000000000000000e+00  1.2094439434800039e-03 3.4668282569914931e-04 0.0000000000000000e+00  -5.1034909317056870e-04 1.6928945001839018e-03 0.0000000000000000e+00  -2.1223104412125952e-03 2.8755999591810249e-05 0.0000000000000000e+00  -7.9896815555019745e-04 2.0562260208113593e-04 0.0000000000000000e+00  2.7162544124362590e-04 2.0184673783155767e-03 0.0000000000000000e+00  4.4030477682651206e-04 1.7756450212101690e-03 0.0000000000000000e+00  -3.5566152736861547e-04 1.5289227682006045e-03 0.0000000000000000e+00  -9.4697342794922384e-04 -6.0618611189464154e-04 0.0000000000000000e+00  -4.9199873952821428e-04 1.0083104369961386e-04 0.0000000000000000e+00  -8.6116973559309886e-04 -4.8391567928856834e-04 0.0000000000000000e+00  1.8044003629032847e-03 -2.6623644162079467e-04 0.0000000000000000e+00  5.7568182086233121e-04 -1.4748781674199934e-03 0.0000000000000000e+00  5.6889286028210379e-04 1.2584484718401621e-03 0.0000000000000000e+00  4.4241500013827501e-04 1.5923217699657160e-03 0.0000000000000000e+00  -1.3795789876196603e-03 6.8365390163013025e-04 0.0000000000000000e+00  -1.5935657332157930e-04 2.0502626415821776e-04 0.0000000000000000e+00  2.5944886606206916e-05 2.1407698046101075e-03 0.0000000000000000e+00  7.5472206696937003e-05 -2.5552407077959657e-04 0.0000000000000000e+00  -6.6985024626109652e-04 1.5034517429143668e-03 0.0000000000000000e+00  -1.4069726981347668e-03 -8.7206538258730092e-04 0.0000000000000000e+00  3.5792261594304596e-04 -1.9085436167374948e-03 0.0000000000000000e+00  -3.8215474807958547e-04 -1.8963732401777633e-03 0.0000000000000000e+00  1.0166625899475936e-03 1.2348098955298620e-03 0.0000000000000000e+00  -3.8761811766292488e-05 1.0553307401517146e-03 0.0000000000000000e+00  4.2440993290707429e-04 -6.4598179719877065e-04 0.0000000000000000e+00  1.4650793566690443e-03 -7.7350179450171876e-04 0.0000000000000000e+00  5.6913166330919160e-04 -1.4611570902647499e-03 0.0000000000000000e+00  -1.1122275528184233e-03 -1.1708008735186672e-03 0.0000000000000000e+00  -8.9367904719978442e-04 7.1900246371592834e-04 0.0000000000000000e+00  -5.7456532009318435e-04 1.4451543815252185e-03 0.0000000000000000e+00  6.3173679180945485e-04 1.1148078019615271e-03 0.0000000000000000e+00  -2.0760168119858934e-03 2.1403745574477347e-04 0.0000000000000000e+00  1.2619260503116409e-03 2.7358691499537442e-04 0.0000000000000000e+00  9.9135251567483641e-04 1.2063525711268432e-03 0.0000000000000000e+00  -3.6047974504579337e-04 1.8247023700726178e-03 0.0000000000000000e+00  -1.9918795896460197e-03 1.5461845479036563e-04 0.0000000000000000e+00  2.1466710898710600e-03 -8.7844210486319436e-05 0.0000000000000000e+00  4.0073613765088229e-04 1.4916442914867200e-03 0.0000000000000000e+00  1.4903445385493371e-03 4.3012844872050319e-04 0.0000000000000000e+00  7.3036799693839154e-04 3.1453432126140571e-04 0.0000000000000000e+00  3.9977059802224260e-04 9.8756408820783624e-04 0.0000000000000000e+00  -1.6902549101891109e-03 5.7926581229581766e-04 0.0000000000000000e+00  -1.3381774109082951e-03 1.5048790484655672e-04 0.0000000000000000e+00  3.7673888479528337e-04 -1.3971446527300091e-03 0.0000000000000000e+00  -1.3020896912815930e-05 2.1618153706775920e-03 0.0000000000000000e+00  -2.1658411543582696e-03 -4.9247027144707771e-05 0.0000000000000000e+00  1.0630943423796088e-04 -2.1521592130381859e-03 0.0000000000000000e+00  -1.2303571900000552e-04 -2.1574578172758861e-03 0.0000000000000000e+00  4.7290424621621687e-05 -4.4249715581340556e-04 0.0000000000000000e+00  8.5999632504109270e-04 1.3760489952526105e-03 0.0000000000000000e+00  -1.4225484906489562e-03 5.7750522876430651e-04 0.0000000000000000e+00  -1.8393408185682608e-03 3.2926898915931860e-04 0.0000000000000000e+00  -5.2380176650198207e-04 1.6720256865137382e-03 0.0000000000000000e+00  -9.2837669461299756e-05 1.1764433797030885e-03 0.0000000000000000e+00  -6.1703778812125605e-05 1.7887735787811723e-03 0.0000000000000000e+00  -1.7041357940403312e-03 -4.5963113784005296e-04 0.0000000000000000e+00  -4.2519994860445477e-04 -1.7041690602109128e-03 0.0000000000000000e+00  6.8345290856002038e-04 -2.8215797075416288e-04 0.0000000000000000e+00  5.2100180246895890e-04 -1.2938256609247604e-03 0.0000000000000000e+00  1.5885576464092540e-03 -5.1199374780684659e-04 0.0000000000000000e+00  7.3931062618463075e-05 -1.9440422962673891e-03 0.0000000000000000e+00  2.0519550014450874e-03 2.3750106077571502e-04 0.0000000000000000e+00  1.7171268473741958e-03 -5.3778976439027731e-04 0.0000000000000000e+00  -1.8015915287826951e-03 -2.9665195269273274e-04 0.0000000000000000e+00  8.4472868783969362e-04 1.4447171401127897e-03 0.0000000000000000e+00  5.0043652763164220e-04 1.6170667065129693e-03 0.0000000000000000e+00  5.6093725274298836e-05 2.0362966417872162e-03 0.0000000000000000e+00  5.5575068548367900e-06 2.2232282680607288e-03 0.0000000000000000e+00  -1.1114702427139937e-04 2.1752319263492284e-03 0.0000000000000000e+00  -6.7087907863433503e-04 1.3797816493003837e-03 0.0000000000000000e+00  -1.2904398818690060e-03 9.8851659379109403e-04 0.0000000000000000e+00  -1.9443482483435584e-03 8.4262964962413713e-05 0.0000000000000000e+00  1.0564741223449462e-03 1.6584864537546657e-04 0.00000