<?xml version="1.0"?>
<VTKFile type="UnstructuredGrid"  version="0.1"  >
<UnstructuredGrid>
<Piece  NumberOfPoints="5315" NumberOfCells="10372">
<Points>
<DataArray  type="Float64"  NumberOfComponents="3"  format="ascii">-1 -1 0  1 -1 0  1 1 0  -1 1 0  0 -1 0  1 0 0  0 1 0  -1 0 0  0 0 0  -1 -0.5 0  -0.5 -1 0  -0.5 1 0  -1 0.5 0  1 -0.5 0  0.5 -1 0  1 0.5 0  0.5 1 0  0.4166666666666666 -0.4166666666666667 0  -0.4166666666666667 0.4166666666666667 0  -0.25 -0.5 0  0.5 0.25 0  -0.4861111111111112 -0.06944444444444445 0  0.0732758620689655 0.507183908045977 0  -0.625 -0.625 0  0.625 0.625 0  0.7380952380952381 -0.25 0  -0.7099116161616161 0.2105429292929293 0  -0.25 0.7380952380952381 0  0.105392156862745 -0.6348039215686275 0  0.6770833333333334 -0.6770833333333333 0  -0.6770833333333334 0.6770833333333334 0  0.3472222222222222 -0.06944444444444446 0  -0.7264957264957265 -0.3044871794871795 0  0.3141940982507127 0.7297313660835709 0  0.02049587951122483 -0.3227479397556124 0  -0.2690972222222223 0.1475694444444444 0  0.3859500089908372 -0.7274430156831472 0  -0.2228477945123298 -0.1761765495248019 0  0.2182539682539683 0.1884920634920635 0  0.75 0.375 0  -0.145442219440968 -0.7602211097204841 0  0.7088913690476191 0.0427827380952381 0  -0.75 -1 0  -1 -0.75 0  1 0.75 0  0.75 1 0  -0.7439982703698937 -0.04614153195464455 0  -0.4609235096577606 -0.3356498099556895 0  0.4063134471431929 0.4895621842856023 0  0.25 -1 0  -0.25 -1 0  -0.75 1 0  0.75 -1 0  -1 -0.25 0  -1 0.25 0  1 -0.25 0  -0.25 1 0  1 -0.75 0  -1 0.75 0  0.25 1 0  1 0.25 0  -0.4041423272138783 -0.7597141090712928 0  0.06500839607911253 0.7578103030529481 0  -0.1572801182352047 0.3838997021864289 0  -0.6528005242053915 0.4409494757946086 0  -0.4930160984848485 0.1544744318181818 0  -0.4732142857142858 0.7752976190476191 0  0.6398809523809523 -0.4538690476190476 0  0.5166054117396399 -0.2161233620965164 0  -0.002273787244753427 0.2232363985975174 0  0.1500564496765022 -0.1524955293952667 0  0.2016720420046758 -0.4410343282803009 0  -0.08495178036419618 0.6274139771124571 0  -0.8367311471133162 0.3642591720794645 0  -0.8333333333333334 -0.625 0  -0.594323836800685 -0.8231079456002283 0  -0.4466957714776065 -0.5349126855671806 0  0.8125 0.5625 0  0.78125 0.78125 0  0.5091392650016769 0.7947130883338923 0  0.125 -0.8382681931833136 0  -0.8184523809523809 -0.8184523809523809 0  -0.07781530426104531 -0.5819319697006881 0  0.5085055196703295 0.04967610411902112 0  0.2918471072074933 -0.276017202318847 0  0.5120763537765269 -0.5898771553229597 0  0.625 -0.8585349462365591 0  0.8158532234335381 -0.8158532234335381 0  -0.5198088446315396 0.5739411553684605 0  -0.8585349462365591 0.625 0  -0.8150493805516597 0.8156205699829586 0  0.8585349462365591 -0.625 0  -0.2688268348649726 0.5439331383603209 0  0.8242100426758139 -0.4436043596336612 0  0.5833756314287952 0.4479378157143976 0  0.8690476190476191 -0.125 0  -0.125 0.8690476190476191 0  -0.8692745600729823 0.125 0  0.8696725120759167 0.125 0  -0.625 0.8711516477451908 0  0.2339522463269718 0.3879558377955778 0  0.2453709502295031 0.5655822922838026 0  0.1730610651637797 0.02021709580868947 0  0.3245402594056757 -0.5644672020485209 0  -0.7291666666666666 -0.4816595441595442 0  -1 -0.375 0  -0.5811140848639904 -0.2127276307675001 0  0.673332592838314 0.2158348143233718 0  0.375 1 0  -0.5714768890989919 0.2985103444040069 0  -1 -0.125 0  -0.8453692574786325 -0.1875 0  -0.3144549134065865 -0.02408675326008025 0  -0.2898414972096258 -0.3336092734780093 0  -0.1075052092206287 -0.4224330421314983 0  -0.05043970703604117 -0.1652278959397459 0  0.6459672950297897 -0.1113415301525317 0  0.4645210271029513 0.6398480556579343 0  0.3512863754411909 0.0937979496253573 0  -0.6063160985568274 0.03891469652249891 0  -0.3428819444444445 0.8690476190476191 0  0.625 1 0  -0.1602164796159982 0.02697860906625157 0  0.04648110064133829 -0.4808416424239687 0  1 0.875 0  -0.3836102479201657 0.6484936449177356 0  -0.3776011723096096 0.263078478984336 0  -0.6024978259969829 -0.3949628096211138 0  0.125 1 0  0.2010781308272777 0.8456221018461906 0  0.2822509696388829 -0.845902544691141 0  -0.3285533674953515 -0.6289773550938936 0  0.3461306793221754 0.278777492464833 0  0.4737475672408696 -0.8508448959534423 0  0.2384632828836344 -0.7029523187242811 0  -0.004777287059791593 0.3759269695907358 0  -0.8499735021850066 -0.3912320205328522 0  0.1222536293721587 0.2963971539625205 0  -0.3769456520999688 -0.203572526805711 0  -0.2749617205755651 -0.8464290792698902 0  0.004805888512766143 -0.747174355248311 0  -0.125 -1 0  -0.06001061822252458 -0.8724007765244854 0  0.875 0.4375 0  0.854421179608893 0.271342359217786 0  0.875 1 0  -0.1499861095763589 0.2358309656934888 0  0.3381943639137225 0.8663061796405532 0  -0.7853090110442228 0.4998412775277108 0  0.7398165998560814 -0.5535192694951373 0  0.1580042122341573 -0.3100246140259917 0  -0.7291666666666667 -0.7142857142857142 0  -0.375 -1 0  0.6483368386154684 0.8514905990110488 0  -0.1295370103291928 -0.2826118305021242 0  0.07458201853700455 0.1123894386563915 0  0.6146465857036327 -0.3161203659316075 0  0.5551898493894731 -0.740296118159085 0  0.375 -1 0  0.482702798370208 -0.084133350091034 0  0.87890625 0.68359375 0  -0.05917195534525846 0.4971092425697621 0  0.1260710309213975 0.6343750312956699 0  0.8690476190476191 -0.3077066815262848 0  -0.2912010232560567 0.3668168386732139 0  -0.875 1 0  -1 0.875 0  1 -0.875 0  0.875 -1 0  -0.8689564281364567 -0.006189266075306407 0  -0.7449425635110547 0.08458938160051771 0  -0.7150266761936593 -0.1739444581417552 0  -0.5260034831318311 -0.711099823962112 0  -0.4724626808827322 -0.871722230709409 0  0.4734436795977052 0.377714794132168 0  -0.875 -1 0  -1 -0.875 0  0.6927189078571988 0.5156567235715964 0  -0.3742497615796874 -0.4296005251260107 0  -0.1969436423297711 -0.6387157229772615 0  -0.6179496409766825 -0.08933356056510935 0  -0.424405057115988 0.04452428810878029 0  -0.08479048335844169 0.1279607007132633 0  0.003830300099055113 0.8712085230656206 0  0.8748778838820267 -1.379218479898026e-05 0  -0.375 1 0  -0.625 1 0  1 0.125 0  -0.125 1 0  1 -0.375 0  1 -0.125 0  1 -0.625 0  0.625 -1 0  0.125 -1 0  -0.625 -1 0  -1 -0.625 0  -1 0.125 0  -1 0.375 0  -1 0.625 0  1 0.375 0  1 0.625 0  0.6325660748712082 0.3335187599557389 0  -0.06420945895056573 0.7549874027425891 0  -0.8769015540914771 0.2478802253893416 0  0.871875 0.871875 0  -0.6868091492840067 0.3270978624973681 0  -0.5363597469565949 0.412994850055505 0  -0.6803734992638302 0.5574295000651103 0  -0.7076253581162534 -0.8803439094224437 0  -0.8778089002295137 -0.5106896447504627 0  -0.3860184984222981 0.530566778071246 0  0.6109900617121508 0.1128453077697081 0  0.3896945134930274 -0.1915382873255086 0  0.7605656944697778 -0.06822134873122943 0  0.3576151269893478 0.5948388411612135 0  -0.5689902680792265 -0.5143596830118065 0  0.6262446286847614 -0.5735657901943212 0  0.2030558252325225 -0.5625263842513452 0  0.6123273142928579 0.7407533260723429 0  0.4016460890123554 -0.3042863223111857 0  -0.59039693199147 0.7578418819188018 0  0.7276932493917544 -0.3705808024528924 0  0.5222536818742854 -0.4713886230400014 0  -0.5101986527137737 0.8848365765607674 0  0.510560172809238 0.5356013299918891 0  -0.3603569195756083 0.75823710606415 0  0.1967279277813232 0.728226870058472 0  -0.6086880986371127 0.1545624071548516 0  -0.38105366729386 0.1511189987807864 0  -0.2944659463671584 -0.7359061804869591 0  0.5060729154966499 -0.3475227845833823 0  -0.09281616240412746 -0.06197858250969457 0  0.7649739583333334 0.6673177083333334 0  0.7628906249999999 0.890234375 0  -0.2666864184909611 0.2585504071132311 0  0.3635064892129658 0.3878003602709461 0  -0.2339409722222222 0.8901937905844155 0  -0.1718792125974916 -0.8957733325456778 0  0.1001768566329531 0.4023510017391879 0  0.3120260172693757 -0.4540546875576884 0  0.7804062804433681 0.1896628610854537 0  0.4087715451998049 0.187961780041608 0  -0.1584963477271457 0.5451611892421655 0  -0.8926817849258324 0.463022006336401 0  0.2338091473445219 -0.07576267331277289 0  0.08171112182813692 -0.2349087687359925 0  0.04635385178956847 -0.1044635073718474 0  -0.4377391632114205 -0.6448874471423088 0  -0.1907678351227189 0.6480215912813945 0  0.300605946475244 0.4741444604171038 0  -0.2145033720757486 -0.06751709909419711 0  0.6069191921170397 -0.005492331448357812 0  0.0214718770761248 0.6032397936031719 0  0.5476675683364878 0.8992752415326501 0  0.4387475014316537 0.9093708953002239 0  -0.4932997685306436 -0.4381009159993523 0  0.2515197695339056 -0.1791673369138964 0  -0.7291666666666667 -0.6088789682539681 0  -0.9166666666666667 -0.6875 0  0.620579540363709 -0.2122431523583302 0  -0.484950136419973 0.6719440339397442 0  0.2857044415400258 0.0137589173127316 0  -0.8945708364098356 -0.288306105327986 0  0.4043102720140535 0.7842914560451557 0  0.04123256238752064 -0.9026968245801402 0  0.2003676884403109 -0.9091888601740487 0  0.1068775558538842 -0.7373377130403223 0  -0.4804566783514427 -0.1763307203045643 0  0.108286342087769 -0.3993789328997278 0  -0.191883080105361 -0.3640821726430649 0  -0.07025064492006244 0.2984876656890053 0  -0.7039324641409584 0.788312126296613 0  -0.7311286585775438 0.8932502354831682 0  0.5171409396884947 0.1503852691889257 0  0.4229392823658633 -0.003216522184234835 0  -0.5621736087218259 -0.919558629836806 0  -0.626474064879544 -0.7266572613636506 0  0.2446828746617422 0.2867616783302419 0  0.1759429608742923 0.4776611759306416 0  -0.3468240303741654 -0.5260416435617549 0  -0.7465808808425306 0.4069574477998361 0  -0.7819962170660292 0.2802441065650652 0  -0.3742623214119594 -0.8547800509641984 0  0.1014498009713561 0.8506721983266377 0  0.4285217620918213 -0.5230190595570253 0  0.4091738370487775 -0.6256346204225141 0  0.78125 0.46875 0  0.90625 0.53125 0  -0.4791801348852565 0.2553992655702126 0  0.7843318610782772 -0.7086046956885941 0  0.8909728264971901 -0.7355183796514634 0  0.7041908166528879 -0.7830649143180282 0  0.731182135
[...]
<PointData  Vectors="f_21"> 
<DataArray  type="Float64"  Name="f_21"  NumberOfComponents="3" format="ascii">-7.9048364199920284e-09 -4.1590529500652863e-08 0.0000000000000000e+00  -7.9048364199920284e-09 -4.1590529500652863e-08 0.0000000000000000e+00  -7.9048364199920284e-09 -4.1590529500652863e-08 0.0000000000000000e+00  -7.9048364199920284e-09 -4.1590529500652863e-08 0.0000000000000000e+00  -9.6317011819129454e-09 -4.6785195117609768e-08 0.0000000000000000e+00  -1.7389870430269161e-09 -4.1047913054462127e-08 0.0000000000000000e+00  -9.6317011819129454e-09 -4.6785195117609768e-08 0.0000000000000000e+00  -1.7389870430269161e-09 -4.1047913054462127e-08 0.0000000000000000e+00  -3.9722664791402806e-09 -4.6042214959029329e-08 0.0000000000000000e+00  -2.6673012268941973e-04 -4.0820133813139761e-08 0.0000000000000000e+00  -8.3070064914658386e-09 2.6668377874087521e-04 0.0000000000000000e+00  -8.3070064914658386e-09 2.6668377874087521e-04 0.0000000000000000e+00  2.6672040038026526e-04 -4.0896650960015277e-08 0.0000000000000000e+00  -2.6673012268941973e-04 -4.0820133813139761e-08 0.0000000000000000e+00  -8.2292211478730777e-09 -2.6677089445907223e-04 0.0000000000000000e+00  2.6672040038026526e-04 -4.0896650960015277e-08 0.0000000000000000e+00  -8.2292211478730777e-09 -2.6677089445907223e-04 0.0000000000000000e+00  6.6678201997084208e-05 6.6636464857725288e-05 0.0000000000000000e+00  -6.6688267201484025e-05 -6.6723337469301640e-05 0.0000000000000000e+00  1.8860050419654633e-04 -4.3586280200212192e-08 0.0000000000000000e+00  -3.4993464477150389e-09 1.8855932865068586e-04 0.0000000000000000e+00  2.5165031056017975e-06 -2.6019805260612557e-04 0.0000000000000000e+00  -2.5962923448040394e-04 -1.4203974185046427e-06 0.0000000000000000e+00  -9.4307675681009180e-05 9.4259852311365643e-05 0.0000000000000000e+00  9.4295027325413299e-05 -9.4345331956778843e-05 0.0000000000000000e+00  -1.2828534938050601e-04 1.3821364194232017e-04 0.0000000000000000e+00  1.0037929469478931e-04 -1.6638427542078457e-04 0.0000000000000000e+00  -1.3826486945903366e-04 1.2823780341342529e-04 0.0000000000000000e+00  2.2995046753872213e-04 -3.5678670556428736e-05 0.0000000000000000e+00  -1.1961540491097684e-04 -1.1965375897849953e-04 0.0000000000000000e+00  1.1960184008395702e-04 1.1956934104311749e-04 0.0000000000000000e+00  2.6654639166841778e-05 2.3093495388124992e-04 0.0000000000000000e+00  -1.4234277243244892e-04 -1.1646023819543715e-04 0.0000000000000000e+00  -1.1035754401336974e-04 -1.4708658508302876e-04 0.0000000000000000e+00  2.2595703906662265e-04 9.0246005605231228e-06 0.0000000000000000e+00  -7.9133243367096769e-05 -1.7855096929494000e-04 0.0000000000000000e+00  7.0649248177757107e-05 -1.6372223418713864e-04 0.0000000000000000e+00  1.0722350521558868e-04 -1.4623724520858297e-04 0.0000000000000000e+00  -1.1523311745869700e-04 1.4008407718426146e-04 0.0000000000000000e+00  1.7424343841949724e-04 7.2132052985981671e-05 0.0000000000000000e+00  1.6372731498762183e-04 8.5792814011445605e-05 0.0000000000000000e+00  2.1806471088792230e-05 2.0937332652472656e-04 0.0000000000000000e+00  -9.2596383639196229e-09 1.8856342430235154e-04 0.0000000000000000e+00  -1.8861047612816567e-04 -4.0868149292120432e-08 0.0000000000000000e+00  1.8859531676372566e-04 -4.0720298350045543e-08 0.0000000000000000e+00  -8.8838055235449512e-09 -1.8864607049165954e-04 0.0000000000000000e+00  -2.6726126086855910e-05 -1.9015311243675959e-04 0.0000000000000000e+00  2.8399969189877903e-05 -1.3072999244160649e-04 0.0000000000000000e+00  -7.7339083808458721e-05 8.3220817684516789e-06 0.0000000000000000e+00  -8.5400030811431160e-09 -1.8865026946393530e-04 0.0000000000000000e+00  -7.7982445139154658e-09 1.8855928816422768e-04 0.0000000000000000e+00  -9.2596383639196229e-09 1.8856342430235154e-04 0.0000000000000000e+00  -8.8838055235449512e-09 -1.8864607049165954e-04 0.0000000000000000e+00  -1.8860580391221439e-04 -4.1075983141850736e-08 0.0000000000000000e+00  1.8860070718721501e-04 -4.0520057615306249e-08 0.0000000000000000e+00  -1.8860580391221439e-04 -4.1075983141850736e-08 0.0000000000000000e+00  -7.7982445139154658e-09 1.8855928816422768e-04 0.0000000000000000e+00  -1.8861047612816567e-04 -4.0868149292120432e-08 0.0000000000000000e+00  1.8859531676372566e-04 -4.0720298350045543e-08 0.0000000000000000e+00  -8.5400030811431160e-09 -1.8865026946393530e-04 0.0000000000000000e+00  1.8860070718721501e-04 -4.0520057615306249e-08 0.0000000000000000e+00  5.4203973534035047e-05 1.8548427108724014e-04 0.0000000000000000e+00  -1.8010658204278092e-04 -3.9224825656641610e-05 0.0000000000000000e+00  -2.1938028729508904e-04 -4.5166586247605692e-05 0.0000000000000000e+00  1.2105896577151496e-04 -4.3677687965778680e-05 0.0000000000000000e+00  -2.7324691526539247e-06 -2.3591368116406282e-04 0.0000000000000000e+00  -1.4551214148990518e-05 2.0222118711325814e-04 0.0000000000000000e+00  -1.1228894029941852e-04 3.4815807345116824e-05 0.0000000000000000e+00  -8.7367231556827602e-06 2.0724411753275977e-04 0.0000000000000000e+00  -1.7209933833116977e-04 -1.5024122758691121e-06 0.0000000000000000e+00  1.0953728027206687e-04 1.0744925922750212e-04 0.0000000000000000e+00  2.1127852856692793e-04 2.9038165454391567e-05 0.0000000000000000e+00  -2.3695196779505140e-04 2.7365755980896938e-05 0.0000000000000000e+00  2.1158585782625998e-04 -5.4179324970170467e-05 0.0000000000000000e+00  -2.1341412622904890e-04 5.0994758223779972e-05 0.0000000000000000e+00  -4.1097296955658248e-05 2.1667162233279414e-04 0.0000000000000000e+00  4.4185527342115828e-05 2.8745409508009537e-05 0.0000000000000000e+00  2.1750676227960892e-04 -2.8950445362966292e-05 0.0000000000000000e+00  1.3079258372893332e-04 -1.3084256842945649e-04 0.0000000000000000e+00  4.5941239908905279e-06 -2.1310889850003381e-04 0.0000000000000000e+00  1.1988064561762564e-04 -8.9223927001096947e-05 0.0000000000000000e+00  -1.2122357479427498e-04 1.2117637323822226e-04 0.0000000000000000e+00  2.5026509478406873e-04 1.6387918404142721e-05 0.0000000000000000e+00  1.1058300404629177e-06 2.6334553415275318e-04 0.0000000000000000e+00  1.2371199831755919e-04 1.3692641203351551e-04 0.0000000000000000e+00  -9.7222321401027163e-06 -7.4307012327396460e-05 0.0000000000000000e+00  -4.3892037259703026e-05 -2.2252842055802183e-04 0.0000000000000000e+00  -1.2211589581510206e-04 -1.2215049700224046e-04 0.0000000000000000e+00  1.6136626185052642e-05 6.1241168174779121e-05 0.0000000000000000e+00  2.2247761996459334e-04 4.3844103853695245e-05 0.0000000000000000e+00  1.2203528795799406e-04 1.2248104436366131e-04 0.0000000000000000e+00  -2.2249010862702092e-04 -4.3926455433485208e-05 0.0000000000000000e+00  -1.7544799942822547e-04 2.7392717348737962e-05 0.0000000000000000e+00  -2.2352366332333893e-04 2.4620100248894121e-05 0.0000000000000000e+00  6.8140129337038565e-05 4.1904689046794351e-05 0.0000000000000000e+00  -9.3555824023176606e-05 9.8499948829182195e-05 0.0000000000000000e+00  -9.8548961071885831e-05 9.3510165725556709e-05 0.0000000000000000e+00  9.3582673747687916e-05 -9.8421671547457439e-05 0.0000000000000000e+00  9.3632858237587512e-05 9.8056902026317177e-05 0.0000000000000000e+00  4.0190023177896925e-05 2.2646691545044105e-04 0.0000000000000000e+00  -1.8574129436795504e-04 6.1619387113150421e-05 0.0000000000000000e+00  -1.8728697823953980e-04 -3.8066397595969024e-05 0.0000000000000000e+00  -1.4491871309780821e-05 1.3764999232715442e-04 0.0000000000000000e+00  1.3683239397279707e-04 -4.5751391702138108e-05 0.0000000000000000e+00  -1.7557729220238520e-04 -1.1589255030376781e-05 0.0000000000000000e+00  -2.4642550119060674e-04 -4.1136548119291079e-08 0.0000000000000000e+00  -4.1665285984437691e-05 -2.0262767291153025e-04 0.0000000000000000e+00  8.6668756684119976e-05 1.7763710361148419e-04 0.0000000000000000e+00  -8.6405169831055632e-09 -2.4646863813246366e-04 0.0000000000000000e+00  4.7881470716736922e-05 -1.5386651588127437e-04 0.0000000000000000e+00  -1.0207211630499707e-04 -4.1421811870921885e-08 0.0000000000000000e+00  -1.3104223443461516e-04 -1.0358848557101499e-04 0.0000000000000000e+00  1.1097842045598574e-05 -2.2208754952182143e-04 0.0000000000000000e+00  1.4173542396838531e-04 -1.0522235160149197e-04 0.0000000000000000e+00  2.4421964927610077e-04 -2.1370611880480247e-05 0.0000000000000000e+00  1.3065689198117321e-04 -3.6593307071459338e-05 0.0000000000000000e+00  -4.0464810094320181e-05 2.2464273082665236e-04 0.0000000000000000e+00  -2.6857095163733966e-05 -1.1279321818069274e-04 0.0000000000000000e+00  -3.4891402563353124e-05 2.2783118922609154e-04 0.0000000000000000e+00  1.0661301869369201e-05 -2.5014754464052684e-04 0.0000000000000000e+00  -5.0544118575958035e-05 2.1524611327409379e-04 0.0000000000000000e+00  -7.0615575929240218e-09 -2.4646706396095231e-04 0.0000000000000000e+00  -1.9781108213440164e-05 -1.2824077822750781e-04 0.0000000000000000e+00  2.6340546786025008e-04 2.2880575548443692e-06 0.0000000000000000e+00  1.0206182804561887e-04 -4.0406384532573979e-08 0.0000000000000000e+00  -8.5185767747070906e-05 1.1199146805724440e-04 0.0000000000000000e+00  -7.3598620721956320e-05 -1.6754673340501800e-04 0.0000000000000000e+00  -7.9861209820434004e-05 -8.2025443865825878e-05 0.0000000000000000e+00  -8.6600466372831654e-09 -1.0211765837186107e-04 0.0000000000000000e+00  -1.0035923545852265e-04 -1.3939080198674742e-04 0.0000000000000000e+00  7.8443949556102551e-05 -1.8300577471734876e-04 0.0000000000000000e+00  1.2573222360819826e-04 9.0212098718077722e-05 0.0000000000000000e+00  -9.5221597960146257e-05 1.5118885430390511e-04 0.0000000000000000e+00  9.9164109205740802e-06 -2.3721103755202738e-04 0.0000000000000000e+00  1.5693454304221302e-04 -1.0817346358087288e-04 0.0000000000000000e+00  -2.4669516368118922e-04 -1.5672719967949009e-06 0.0000000000000000e+00  -2.2390820500195477e-04 -4.0623931582668605e-05 0.0000000000000000e+00  -1.9841090300211668e-04 5.9608771201307258e-05 0.0000000000000000e+00  6.0017808140845128e-05 -1.9826197894581035e-04 0.0000000000000000e+00  8.0372757280945683e-05 1.7960690970030154e-04 0.0000000000000000e+00  1.9024204596109891e-04 -2.8687269341709243e-06 0.0000000000000000e+00  -8.9404571818392971e-09 1.0202578120115155e-04 0.0000000000000000e+00  1.0222889825903462e-04 4.5979042267009305e-05 0.0000000000000000e+00  2.4168227628653757e-04 1.9871454466248929e-05 0.0000000000000000e+00  1.8017442232362281e-04 7.7473225259555239e-05 0.0000000000000000e+00  -9.5359342937279401e-09 -1.0211157748278625e-04 0.0000000000000000e+00  -1.6040952499305269e-04 -8.9387767952387638e-05 0.0000000000000000e+00  -5.2946319485653080e-05 -2.1279454445516529e-04 0.0000000000000000e+00  2.0831718463210915e-04 -1.2365013950792447e-07 0.0000000000000000e+00  -1.7990624464146740e-04 -3.2596973286028667e-05 0.0000000000000000e+00  1.9398658072017125e-04 7.1346178917290317e-05 0.0000000000000000e+00  -1.3750236720851654e-04 1.2499163897374587e-04 0.0000000000000000e+00  -8.2749430007295333e-09 2.4637979586274129e-04 0.0000000000000000e+00  5.3899439877699119e-05 -2.1286186496729644e-04 0.0000000000000000e+00  1.9000482450406996e-04 -6.6671072272571146e-05 0.0000000000000000e+00  -8.9713767772092335e-05 5.8058499939546825e-05 0.0000000000000000e+00  -7.8752913698819059e-05 1.3626407389589760e-04 0.0000000000000000e+00  -3.3520162705908917e-05 -1.8007076506556827e-04 0.0000000000000000e+00  -8.6405169831055632e-09 -2.4646863813246366e-04 0.0000000000000000e+00  3.7832725313728781e-06 2.5703735373502250e-04 0.0000000000000000e+00  2.0758512842799162e-04 -5.4049589593854652e-05 0.0000000000000000e+00  -2.6212578097091211e-04 -4.9345010007276263e-07 0.0000000000000000e+00  -2.2448176426624039e-04 -4.2207340495072083e-05 0.0000000000000000e+00  -2.0120399318538219e-04 6.0545197677068613e-05 0.0000000000000000e+00  -1.4865416968414287e-04 -8.5923856875062411e-05 0.0000000000000000e+00  -6.3408177433477309e-09 1.0203142835361347e-04 0.0000000000000000e+00  1.0206182804561887e-04 -4.0406384532573979e-08 0.0000000000000000e+00  -1.0208002332480282e-04 -4.2699100708538226e-08 0.0000000000000000e+00  -9.5359342937279401e-09 -1.0211157748278625e-04 0.0000000000000000e+00  -4.7568397354998297e-06 -1.0675313222761894e-04 0.0000000000000000e+00  4.8739073206533441e-05 -1.8489216183835923e-04 0.0000000000000000e+00  -8.6674460954713666e-05 -1.7787594324920059e-04 0.0000000000000000e+00  -1.7158073855993177e-05 1.6361411416051033e-04 0.0000000000000000e+00  9.0311393482448135e-06 2.4439872062768909e-04 0.0000000000000000e+00  -2.0611142856660139e-05 9.9573565384589166e-05 0.0000000000000000e+00  -6.3408177433477309e-09 1.0203142835361347e-04 0.0000000000000000e+00  -1.0208002332480282e-04 -4.2699100708538226e-08 0.0000000000000000e+00  1.5160993390714325e-04 -1.0826730445262902e-05 0.0000000000000000e+00  1.0014916732072178e-04 -5.4046779234408292e-05 0.0000000000000000e+00  1.9696841718379375e-04 6.5256402981808960e-05 0.0000000000000000e+00  -2.6753952276849551e-05 -2.3893773490655222e-04 0.0000000000000000e+00  -8.7510347378966969e-06 -2.5675049059747799e-04 0.0000000000000000e+00  -1.0068181090897672e-04 -6.4661552289427322e-05 0.0000000000000000e+00  -1.0500062502391022e-04 -2.9945415191893354e-06 0.0000000000000000e+00  -1.1458493152692855e-08 1.0212350891007216e-04 0.0000000000000000e+00  -8.2749430007295333e-09 2.4637979586274129e-04 0.0000000000000000e+00  -8.4015937484979907e-09 2.4638178445127883e-04 0.0000000000000000e+00  1.0206935102798598e-04 -3.9699548643222261e-08 0.0000000000000000e+00  -8.9404571818392971e-09 1.0202578120115155e-04 0.0000000000000000e+00  -2.4642550119060674e-04 -4.1136548119291079e-08 0.0000000000000000e+00  -1.0207211630499707e-04 -4.1421811870921885e-08 0.0000000000000000e+00  -2.4642854238070456e-04 -4.0397442122512658e-08 0.0000000000000000e+00  -7.0615575929240218e-09 -2.4646706396095231e-04 0.0000000000000000e+00  -8.6600466372831654e-09 -1.0211765837186107e-04 0.0000000000000000e+00  -8.4015937484979907e-09 2.4638178445127883e-04 0.0000000000000000e+00  -2.4642854238070456e-04 -4.0397442122512658e-08 0.0000000000000000e+00  1.0206935102798598e-04 -3.9699548643222261e-08 0.0000000000000000e+00  2.4641850878125924e-04 -4.0424377909993405e-08 0.0000000000000000e+00  2.4641593445302840e-04 -4.0466554277247222e-08 0.0000000000000000e+00  2.4641850878125924e-04 -4.0424377909993405e-08 0.0000000000000000e+00  2.4641593445302840e-04 -4.0466554277247222e-08 0.0000000000000000e+00  9.3470521534363098e-05 1.2179611716062904e-04 0.0000000000000000e+00  -1.8187047051596733e-04 3.8328407669409199e-05 0.0000000000000000e+00  1.7350553377787689e-04 -7.1645003522764853e-05 0.0000000000000000e+00  9.6125515623195540e-05 -9.6176190602615053e-05 0.0000000000000000e+00  1.2644071879863082e-04 -1.1483344706082735e-04 0.0000000000000000e+00  2.9266765966127975e-05 -7.1572562960644693e-05 0.0000000000000000e+00  1.4085285487364216e-04 4.0339613172175348e-05 0.0000000000000000e+00  -5.9444231296468546e-05 1.9712696078833569e-04 0.0000000000000000e+00  -2.4717941666572849e-04 3.3128596199058884e-06 0.0000000000000000e+00  -9.3057060823369006e-05 2.3909735442662513e-05 0.0000000000000000e+00  3.1632492477778472e-05 2.3504287073919286e-04 0.0000000000000000e+00  5.1278341260497135e-05 2.0676132457501137e-04 0.0000000000000000e+00  -4.1424227411204487e-05 1.7802883396232256e-04 0.0000000000000000e+00  -1.1029526547780635e-04 -7.0640025837576790e-05 0.0000000000000000e+00  -5.7305062846590143e-05 1.1706016261994875e-05 0.0000000000000000e+00  -1.0030060518393183e-04 -5.6398064978907771e-05 0.0000000000000000e+00  2.1014566104085889e-04 -3.1048015603341791e-05 0.0000000000000000e+00  6.7040683756766005e-05 -1.7181070814467888e-04 0.0000000000000000e+00  6.6253358917944686e-05 1.4652589964413517e-04 0.0000000000000000e+00  5.1519499902692144e-05 1.8541323337876078e-04 0.0000000000000000e+00  -1.6067607890587704e-04 7.9584048319598894e-05 0.0000000000000000e+00  -1.8562702524813801e-05 2.3839147144692295e-05 0.0000000000000000e+00  3.0153688294949267e-06 2.4928822408286480e-04 0.0000000000000000e+00  8.7845897533969113e-06 -2.9798783842498523e-05 0.0000000000000000e+00  -7.8020559228592892e-05 1.7506155864103101e-04 0.0000000000000000e+00  -1.6386986214575060e-04 -1.0160577115093034e-04 0.0000000000000000e+00  4.1682819129491055e-05 -2.2231665133153815e-04 0.0000000000000000e+00  -4.4510535016375020e-05 -2.2090008604355884e-04 0.0000000000000000e+00  1.1840064165833053e-04 1.4377346380599543e-04 0.0000000000000000e+00  -4.5173801294964828e-06 1.2287035615686997e-04 0.0000000000000000e+00  4.9426847714064564e-05 -7.5274327962024194e-05 0.0000000000000000e+00  1.7062514167615482e-04 -9.0123796674232434e-05 0.0000000000000000e+00  6.6277522592732695e-05 -1.7021159722602412e-04 0.0000000000000000e+00  -1.2953920263186999e-04 -1.3639688439427824e-04 0.0000000000000000e+00  -1.0408690190557847e-04 8.3698640614733390e-05 0.0000000000000000e+00  -6.6923443105624386e-05 1.6827124047586326e-04 0.0000000000000000e+00  7.3569329328838315e-05 1.2979698700151424e-04 0.0000000000000000e+00  -2.4178859085184406e-04 2.4887086189369380e-05 0.0000000000000000e+00  1.4696684748186027e-04 3.1823803119459083e-05 0.0000000000000000e+00  1.1545547934503911e-04 1.4046053614492668e-04 0.0000000000000000e+00  -4.1986797178385133e-05 2.1247441960751590e-04 0.0000000000000000e+00  -2.3199018203787323e-04 1.7967761774134409e-05 0.0000000000000000e+00  2.5000785014949459e-04 -1.0267018573623669e-05 0.0000000000000000e+00  4.6669483807970964e-05 1.7368462733077648e-04 0.0000000000000000e+00  1.7357102339085403e-04 5.0054669738278940e-05 0.0000000000000000e+00  8.5060248815201599e-05 3.6591970843071885e-05 0.0000000000000000e+00  4.6554474335769707e-05 1.1497893920050241e-04 0.0000000000000000e+00  -1.9686182572392624e-04 6.7424646767134299e-05 0.0000000000000000e+00  -1.5585624208904077e-04 1.7486405084612170e-05 0.0000000000000000e+00  4.3874959308922332e-05 -1.6275841855920947e-04 0.0000000000000000e+00  -1.5183614749048266e-06 2.5173775786729836e-04 0.0000000000000000e+00  -2.5225106069738163e-04 -5.7759079631308821e-06 0.0000000000000000e+00  1.2374738840085294e-05 -2.5069091309377233e-04 0.0000000000000000e+00  -1.4335877959748828e-05 -2.5130874793135314e-04 0.0000000000000000e+00  5.5041247630827412e-06 -5.1573153517542194e-05 0.0000000000000000e+00  1.0015733804151497e-04 1.6022163730409074e-04 0.0000000000000000e+00  -1.6568227617736668e-04 6.7222699032889449e-05 0.0000000000000000e+00  -2.1422438723181652e-04 3.8311889732551442e-05 0.0000000000000000e+00  -6.1006971526243221e-05 1.9469452818830684e-04 0.0000000000000000e+00  -1.0818378278200412e-05 1.3697718606765311e-04 0.0000000000000000e+00  -7.1886270854435005e-06 2.0828973791386791e-04 0.0000000000000000e+00  -1.9847537881260979e-04 -5.3567352204262063e-05 0.0000000000000000e+00  -4.9527395264060694e-05 -1.9851631300763639e-04 0.0000000000000000e+00  7.9592486968082509e-05 -3.2902372354807480e-05 0.0000000000000000e+00  6.0672141424536257e-05 -1.5072635863899790e-04 0.0000000000000000e+00  1.8500624224269019e-04 -5.9670156888661902e-05 0.0000000000000000e+00  8.6078581125409151e-06 -2.2645096437028507e-04 0.0000000000000000e+00  2.3897867109466754e-04 2.7620250437201057e-05 0.0000000000000000e+00  1.9998291538967099e-04 -6.2673394675177917e-05 0.0000000000000000e+00  -2.0982655437477943e-04 -3.4589987443412726e-05 0.0000000000000000e+00  9.8375009276384530e-05 1.6822288694659645e-04 0.0000000000000000e+00  5.8276721295650231e-05 1.8829576557401214e-04 0.0000000000000000e+00  6.5300612984146289e-06 2.3711855564811785e-04 0.0000000000000000e+00  6.4485340849428029e-07 2.5888937902714072e-04 0.0000000000000000e+00  -1.2951324505512243e-05 2.5330182605408803e-04 0.0000000000000000e+00  -7.8139740465336295e-05 1.6065955792504523e-04 0.0000000000000000e+00  -1.5029516947353175e-04 1.1508740802698838e-04 0.0000000000000000e+00  -2.2645409638176480e-04 9.7731502295873602e-06 0.0000000000000000e+00  1.2303865810470589e-04 1.9277063774173515e-05 0.0