<?xml version="1.0"?>
<VTKFile type="UnstructuredGrid"  version="0.1"  >
<UnstructuredGrid>
<Piece  NumberOfPoints="5315" NumberOfCells="10372">
<Points>
<DataArray  type="Float64"  NumberOfComponents="3"  format="ascii">-1 -1 0  1 -1 0  1 1 0  -1 1 0  0 -1 0  1 0 0  0 1 0  -1 0 0  0 0 0  -1 -0.5 0  -0.5 -1 0  -0.5 1 0  -1 0.5 0  1 -0.5 0  0.5 -1 0  1 0.5 0  0.5 1 0  0.4166666666666666 -0.4166666666666667 0  -0.4166666666666667 0.4166666666666667 0  -0.25 -0.5 0  0.5 0.25 0  -0.4861111111111112 -0.06944444444444445 0  0.0732758620689655 0.507183908045977 0  -0.625 -0.625 0  0.625 0.625 0  0.7380952380952381 -0.25 0  -0.7099116161616161 0.2105429292929293 0  -0.25 0.7380952380952381 0  0.105392156862745 -0.6348039215686275 0  0.6770833333333334 -0.6770833333333333 0  -0.6770833333333334 0.6770833333333334 0  0.3472222222222222 -0.06944444444444446 0  -0.7264957264957265 -0.3044871794871795 0  0.3141940982507127 0.7297313660835709 0  0.02049587951122483 -0.3227479397556124 0  -0.2690972222222223 0.1475694444444444 0  0.3859500089908372 -0.7274430156831472 0  -0.2228477945123298 -0.1761765495248019 0  0.2182539682539683 0.1884920634920635 0  0.75 0.375 0  -0.145442219440968 -0.7602211097204841 0  0.7088913690476191 0.0427827380952381 0  -0.75 -1 0  -1 -0.75 0  1 0.75 0  0.75 1 0  -0.7439982703698937 -0.04614153195464455 0  -0.4609235096577606 -0.3356498099556895 0  0.4063134471431929 0.4895621842856023 0  0.25 -1 0  -0.25 -1 0  -0.75 1 0  0.75 -1 0  -1 -0.25 0  -1 0.25 0  1 -0.25 0  -0.25 1 0  1 -0.75 0  -1 0.75 0  0.25 1 0  1 0.25 0  -0.4041423272138783 -0.7597141090712928 0  0.06500839607911253 0.7578103030529481 0  -0.1572801182352047 0.3838997021864289 0  -0.6528005242053915 0.4409494757946086 0  -0.4930160984848485 0.1544744318181818 0  -0.4732142857142858 0.7752976190476191 0  0.6398809523809523 -0.4538690476190476 0  0.5166054117396399 -0.2161233620965164 0  -0.002273787244753427 0.2232363985975174 0  0.1500564496765022 -0.1524955293952667 0  0.2016720420046758 -0.4410343282803009 0  -0.08495178036419618 0.6274139771124571 0  -0.8367311471133162 0.3642591720794645 0  -0.8333333333333334 -0.625 0  -0.594323836800685 -0.8231079456002283 0  -0.4466957714776065 -0.5349126855671806 0  0.8125 0.5625 0  0.78125 0.78125 0  0.5091392650016769 0.7947130883338923 0  0.125 -0.8382681931833136 0  -0.8184523809523809 -0.8184523809523809 0  -0.07781530426104531 -0.5819319697006881 0  0.5085055196703295 0.04967610411902112 0  0.2918471072074933 -0.276017202318847 0  0.5120763537765269 -0.5898771553229597 0  0.625 -0.8585349462365591 0  0.8158532234335381 -0.8158532234335381 0  -0.5198088446315396 0.5739411553684605 0  -0.8585349462365591 0.625 0  -0.8150493805516597 0.8156205699829586 0  0.8585349462365591 -0.625 0  -0.2688268348649726 0.5439331383603209 0  0.8242100426758139 -0.4436043596336612 0  0.5833756314287952 0.4479378157143976 0  0.8690476190476191 -0.125 0  -0.125 0.8690476190476191 0  -0.8692745600729823 0.125 0  0.8696725120759167 0.125 0  -0.625 0.8711516477451908 0  0.2339522463269718 0.3879558377955778 0  0.2453709502295031 0.5655822922838026 0  0.1730610651637797 0.02021709580868947 0  0.3245402594056757 -0.5644672020485209 0  -0.7291666666666666 -0.4816595441595442 0  -1 -0.375 0  -0.5811140848639904 -0.2127276307675001 0  0.673332592838314 0.2158348143233718 0  0.375 1 0  -0.5714768890989919 0.2985103444040069 0  -1 -0.125 0  -0.8453692574786325 -0.1875 0  -0.3144549134065865 -0.02408675326008025 0  -0.2898414972096258 -0.3336092734780093 0  -0.1075052092206287 -0.4224330421314983 0  -0.05043970703604117 -0.1652278959397459 0  0.6459672950297897 -0.1113415301525317 0  0.4645210271029513 0.6398480556579343 0  0.3512863754411909 0.0937979496253573 0  -0.6063160985568274 0.03891469652249891 0  -0.3428819444444445 0.8690476190476191 0  0.625 1 0  -0.1602164796159982 0.02697860906625157 0  0.04648110064133829 -0.4808416424239687 0  1 0.875 0  -0.3836102479201657 0.6484936449177356 0  -0.3776011723096096 0.263078478984336 0  -0.6024978259969829 -0.3949628096211138 0  0.125 1 0  0.2010781308272777 0.8456221018461906 0  0.2822509696388829 -0.845902544691141 0  -0.3285533674953515 -0.6289773550938936 0  0.3461306793221754 0.278777492464833 0  0.4737475672408696 -0.8508448959534423 0  0.2384632828836344 -0.7029523187242811 0  -0.004777287059791593 0.3759269695907358 0  -0.8499735021850066 -0.3912320205328522 0  0.1222536293721587 0.2963971539625205 0  -0.3769456520999688 -0.203572526805711 0  -0.2749617205755651 -0.8464290792698902 0  0.004805888512766143 -0.747174355248311 0  -0.125 -1 0  -0.06001061822252458 -0.8724007765244854 0  0.875 0.4375 0  0.854421179608893 0.271342359217786 0  0.875 1 0  -0.1499861095763589 0.2358309656934888 0  0.3381943639137225 0.8663061796405532 0  -0.7853090110442228 0.4998412775277108 0  0.7398165998560814 -0.5535192694951373 0  0.1580042122341573 -0.3100246140259917 0  -0.7291666666666667 -0.7142857142857142 0  -0.375 -1 0  0.6483368386154684 0.8514905990110488 0  -0.1295370103291928 -0.2826118305021242 0  0.07458201853700455 0.1123894386563915 0  0.6146465857036327 -0.3161203659316075 0  0.5551898493894731 -0.740296118159085 0  0.375 -1 0  0.482702798370208 -0.084133350091034 0  0.87890625 0.68359375 0  -0.05917195534525846 0.4971092425697621 0  0.1260710309213975 0.6343750312956699 0  0.8690476190476191 -0.3077066815262848 0  -0.2912010232560567 0.3668168386732139 0  -0.875 1 0  -1 0.875 0  1 -0.875 0  0.875 -1 0  -0.8689564281364567 -0.006189266075306407 0  -0.7449425635110547 0.08458938160051771 0  -0.7150266761936593 -0.1739444581417552 0  -0.5260034831318311 -0.711099823962112 0  -0.4724626808827322 -0.871722230709409 0  0.4734436795977052 0.377714794132168 0  -0.875 -1 0  -1 -0.875 0  0.6927189078571988 0.5156567235715964 0  -0.3742497615796874 -0.4296005251260107 0  -0.1969436423297711 -0.6387157229772615 0  -0.6179496409766825 -0.08933356056510935 0  -0.424405057115988 0.04452428810878029 0  -0.08479048335844169 0.1279607007132633 0  0.003830300099055113 0.8712085230656206 0  0.8748778838820267 -1.379218479898026e-05 0  -0.375 1 0  -0.625 1 0  1 0.125 0  -0.125 1 0  1 -0.375 0  1 -0.125 0  1 -0.625 0  0.625 -1 0  0.125 -1 0  -0.625 -1 0  -1 -0.625 0  -1 0.125 0  -1 0.375 0  -1 0.625 0  1 0.375 0  1 0.625 0  0.6325660748712082 0.3335187599557389 0  -0.06420945895056573 0.7549874027425891 0  -0.8769015540914771 0.2478802253893416 0  0.871875 0.871875 0  -0.6868091492840067 0.3270978624973681 0  -0.5363597469565949 0.412994850055505 0  -0.6803734992638302 0.5574295000651103 0  -0.7076253581162534 -0.8803439094224437 0  -0.8778089002295137 -0.5106896447504627 0  -0.3860184984222981 0.530566778071246 0  0.6109900617121508 0.1128453077697081 0  0.3896945134930274 -0.1915382873255086 0  0.7605656944697778 -0.06822134873122943 0  0.3576151269893478 0.5948388411612135 0  -0.5689902680792265 -0.5143596830118065 0  0.6262446286847614 -0.5735657901943212 0  0.2030558252325225 -0.5625263842513452 0  0.6123273142928579 0.7407533260723429 0  0.4016460890123554 -0.3042863223111857 0  -0.59039693199147 0.7578418819188018 0  0.7276932493917544 -0.3705808024528924 0  0.5222536818742854 -0.4713886230400014 0  -0.5101986527137737 0.8848365765607674 0  0.510560172809238 0.5356013299918891 0  -0.3603569195756083 0.75823710606415 0  0.1967279277813232 0.728226870058472 0  -0.6086880986371127 0.1545624071548516 0  -0.38105366729386 0.1511189987807864 0  -0.2944659463671584 -0.7359061804869591 0  0.5060729154966499 -0.3475227845833823 0  -0.09281616240412746 -0.06197858250969457 0  0.7649739583333334 0.6673177083333334 0  0.7628906249999999 0.890234375 0  -0.2666864184909611 0.2585504071132311 0  0.3635064892129658 0.3878003602709461 0  -0.2339409722222222 0.8901937905844155 0  -0.1718792125974916 -0.8957733325456778 0  0.1001768566329531 0.4023510017391879 0  0.3120260172693757 -0.4540546875576884 0  0.7804062804433681 0.1896628610854537 0  0.4087715451998049 0.187961780041608 0  -0.1584963477271457 0.5451611892421655 0  -0.8926817849258324 0.463022006336401 0  0.2338091473445219 -0.07576267331277289 0  0.08171112182813692 -0.2349087687359925 0  0.04635385178956847 -0.1044635073718474 0  -0.4377391632114205 -0.6448874471423088 0  -0.1907678351227189 0.6480215912813945 0  0.300605946475244 0.4741444604171038 0  -0.2145033720757486 -0.06751709909419711 0  0.6069191921170397 -0.005492331448357812 0  0.0214718770761248 0.6032397936031719 0  0.5476675683364878 0.8992752415326501 0  0.4387475014316537 0.9093708953002239 0  -0.4932997685306436 -0.4381009159993523 0  0.2515197695339056 -0.1791673369138964 0  -0.7291666666666667 -0.6088789682539681 0  -0.9166666666666667 -0.6875 0  0.620579540363709 -0.2122431523583302 0  -0.484950136419973 0.6719440339397442 0  0.2857044415400258 0.0137589173127316 0  -0.8945708364098356 -0.288306105327986 0  0.4043102720140535 0.7842914560451557 0  0.04123256238752064 -0.9026968245801402 0  0.2003676884403109 -0.9091888601740487 0  0.1068775558538842 -0.7373377130403223 0  -0.4804566783514427 -0.1763307203045643 0  0.108286342087769 -0.3993789328997278 0  -0.191883080105361 -0.3640821726430649 0  -0.07025064492006244 0.2984876656890053 0  -0.7039324641409584 0.788312126296613 0  -0.7311286585775438 0.8932502354831682 0  0.5171409396884947 0.1503852691889257 0  0.4229392823658633 -0.003216522184234835 0  -0.5621736087218259 -0.919558629836806 0  -0.626474064879544 -0.7266572613636506 0  0.2446828746617422 0.2867616783302419 0  0.1759429608742923 0.4776611759306416 0  -0.3468240303741654 -0.5260416435617549 0  -0.7465808808425306 0.4069574477998361 0  -0.7819962170660292 0.2802441065650652 0  -0.3742623214119594 -0.8547800509641984 0  0.1014498009713561 0.8506721983266377 0  0.4285217620918213 -0.5230190595570253 0  0.4091738370487775 -0.6256346204225141 0  0.78125 0.46875 0  0.90625 0.53125 0  -0.4791801348852565 0.2553992655702126 0  0.7843318610782772 -0.7086046956885941 0  0.8909728264971901 -0.7355183796514634 0  0.7041908166528879 -0.7830649143180282 0  0.731182135
[...]
<PointData  Vectors="f_21"> 
<DataArray  type="Float64"  Name="f_21"  NumberOfComponents="3" format="ascii">-1.0178588219084745e-08 -4.1670012012307381e-08 0.0000000000000000e+00  -1.0178588219084745e-08 -4.1670012012307381e-08 0.0000000000000000e+00  -1.0178588219084745e-08 -4.1670012012307381e-08 0.0000000000000000e+00  -1.0178588219084745e-08 -4.1670012012307381e-08 0.0000000000000000e+00  -1.6865573455201901e-08 -5.1424658926774775e-08 0.0000000000000000e+00  1.3970254662942108e-09 -3.9181067943720590e-08 0.0000000000000000e+00  -1.6865573455201901e-08 -5.1424658926774775e-08 0.0000000000000000e+00  1.3970254662942108e-09 -3.9181067943720590e-08 0.0000000000000000e+00  -7.6130584749926630e-09 -4.6875899611370653e-08 0.0000000000000000e+00  -1.0478645900287155e-03 -3.8444865601727618e-08 0.0000000000000000e+00  -1.1739787718708762e-08 1.0478207635035654e-03 0.0000000000000000e+00  -1.1739787718708762e-08 1.0478207635035654e-03 0.0000000000000000e+00  1.0478563905409563e-03 -3.8460735036592870e-08 0.0000000000000000e+00  -1.0478645900287155e-03 -3.8444865601727618e-08 0.0000000000000000e+00  -1.1597884817702374e-08 -1.0479073179557811e-03 0.0000000000000000e+00  1.0478563905409563e-03 -3.8460735036592870e-08 0.0000000000000000e+00  -1.1597884817702374e-08 -1.0479073179557811e-03 0.0000000000000000e+00  2.6196405805504531e-04 2.6191965889625374e-04 0.0000000000000000e+00  -2.6197794575426368e-04 -2.6200326222428842e-04 0.0000000000000000e+00  7.4094978776764210e-04 -4.1270438837811305e-08 0.0000000000000000e+00  -2.4935195821019504e-09 7.4090581791223700e-04 0.0000000000000000e+00  9.8950291109601102e-06 -1.0220907344069944e-03 0.0000000000000000e+00  -1.0199642629511380e-03 -5.4471000220865399e-06 0.0000000000000000e+00  -3.7048201931491517e-04 3.7043306213039532e-04 0.0000000000000000e+00  3.7046622256552500e-04 -3.7051774529938721e-04 0.0000000000000000e+00  -5.0397384515634997e-04 5.4311251666109347e-04 0.0000000000000000e+00  3.9436174037527327e-04 -6.5353587527740026e-04 0.0000000000000000e+00  -5.4316832945795041e-04 5.0392526965476066e-04 0.0000000000000000e+00  9.0340041305104861e-04 -1.4003384516328063e-04 0.0000000000000000e+00  -4.6990556544648538e-04 -4.6994523078809538e-04 0.0000000000000000e+00  4.6988805723988103e-04 4.6986307429135345e-04 0.0000000000000000e+00  1.0472372674950222e-04 9.0738497750660052e-04 0.0000000000000000e+00  -5.5919897599327080e-04 -4.5740433871994647e-04 0.0000000000000000e+00  -4.3353140287367411e-04 -5.7771260299230873e-04 0.0000000000000000e+00  8.8770614146193032e-04 3.5587073816507590e-05 0.0000000000000000e+00  -3.1087390730358283e-04 -7.0132698694643544e-04 0.0000000000000000e+00  2.7757040635407462e-04 -6.4306818779251971e-04 0.0000000000000000e+00  4.2124713853355835e-04 -5.7437865709808055e-04 0.0000000000000000e+00  -4.5269513423656856e-04 5.5046876401641581e-04 0.0000000000000000e+00  6.8454738594513791e-04 2.8350427064326942e-04 0.0000000000000000e+00  6.4323801570008974e-04 3.3717775713396075e-04 0.0000000000000000e+00  8.5677108635412203e-05 8.2267195033680119e-04 0.0000000000000000e+00  -1.5119529972335495e-08 7.4091369937648646e-04 0.0000000000000000e+00  -7.4095817619818647e-04 -3.8146320243403751e-08 0.0000000000000000e+00  7.4093733159956996e-04 -3.8005373057630327e-08 0.0000000000000000e+00  -1.4124704016359406e-08 -7.4099039241485925e-04 0.0000000000000000e+00  -1.0498821330354004e-04 -7.4691439095866594e-04 0.0000000000000000e+00  1.1158276918008419e-04 -5.1346101995740378e-04 0.0000000000000000e+00  -3.0381882712423485e-04 3.2825108039643290e-05 0.0000000000000000e+00  -1.2537179868224434e-08 -7.4099947482691433e-04 0.0000000000000000e+00  -9.9588330707344556e-09 7.4090511356913579e-04 0.0000000000000000e+00  -1.5119529972335495e-08 7.4091369937648646e-04 0.0000000000000000e+00  -1.4124704016359406e-08 -7.4099039241485925e-04 0.0000000000000000e+00  -7.4094865161626101e-04 -3.9411046957280575e-08 0.0000000000000000e+00  7.4094908303075563e-04 -3.6843985164633751e-08 0.0000000000000000e+00  -7.4094865161626101e-04 -3.9411046957280575e-08 0.0000000000000000e+00  -9.9588330707344556e-09 7.4090511356913579e-04 0.0000000000000000e+00  -7.4095817619818647e-04 -3.8146320243403751e-08 0.0000000000000000e+00  7.4093733159956996e-04 -3.8005373057630327e-08 0.0000000000000000e+00  -1.2537179868224434e-08 -7.4099947482691433e-04 0.0000000000000000e+00  7.4094908303075563e-04 -3.6843985164633751e-08 0.0000000000000000e+00  2.1296345017002109e-04 7.2882171397133046e-04 0.0000000000000000e+00  -7.0754712230761151e-04 -1.5396568922064108e-04 0.0000000000000000e+00  -8.6184503407103416e-04 -1.7731065708418751e-04 0.0000000000000000e+00  4.7560832012852723e-04 -1.7146980222921239e-04 0.0000000000000000e+00  -1.0725262037884411e-05 -9.2668610415019435e-04 0.0000000000000000e+00  -5.7145559614959200e-05 7.9457257847603531e-04 0.0000000000000000e+00  -4.4112691813490070e-04 1.3690478581335845e-04 0.0000000000000000e+00  -3.4315145763302882e-05 8.1431005198274726e-04 0.0000000000000000e+00  -6.7609978590779164e-04 -5.7690121993405818e-06 0.0000000000000000e+00  4.3033721106958145e-04 4.2225941500602523e-04 0.0000000000000000e+00  8.3004198994680596e-04 1.1421313253607131e-04 0.0000000000000000e+00  -9.3087271825914586e-04 1.0764129291994737e-04 0.0000000000000000e+00  8.3125083677490453e-04 -2.1272813159334879e-04 0.0000000000000000e+00  -8.3840418173012092e-04 2.0045970806706174e-04 0.0000000000000000e+00  -1.6143571546494220e-04 8.5134123950511890e-04 0.0000000000000000e+00  1.7360119562440253e-04 1.1305589175030796e-04 0.0000000000000000e+00  8.5451569390812868e-04 -1.1360978897914779e-04 0.0000000000000000e+00  5.1385305813151543e-04 -5.1390404166070237e-04 0.0000000000000000e+00  1.8069678990505560e-05 -8.3709128293179929e-04 0.0000000000000000e+00  4.7098329634754108e-04 -3.5039201151330533e-04 0.0000000000000000e+00  -4.7622050590012042e-04 4.7617589060201636e-04 0.0000000000000000e+00  9.8320735543573450e-04 6.4513692290461052e-05 0.0000000000000000e+00  4.3535214959522553e-06 1.0347113138618786e-03 0.0000000000000000e+00  4.8602517736372761e-04 5.3806259592631325e-04 0.0000000000000000e+00  -3.8180305929000432e-05 -2.9179276721832319e-04 0.0000000000000000e+00  -1.7241497538462199e-04 -8.7409840250515195e-04 0.0000000000000000e+00  -4.7972637413882656e-04 -4.7975667531471872e-04 0.0000000000000000e+00  6.3412501950107708e-05 2.4071702149152619e-04 0.0000000000000000e+00  8.7404561461129962e-04 1.7236769992162837e-04 0.0000000000000000e+00  4.7944952759987802e-04 4.8130127969794873e-04 0.0000000000000000e+00  -8.7406019445220961e-04 -1.7244554404867500e-04 0.0000000000000000e+00  -6.8924935208377637e-04 1.0774397217624814e-04 0.0000000000000000e+00  -8.7812487075776947e-04 9.6846412113146845e-05 0.0000000000000000e+00  2.6771105453370509e-04 1.6475534619138376e-04 0.0000000000000000e+00  -3.6753582420289690e-04 3.8709122087581498e-04 0.0000000000000000e+00  -3.8713935864780519e-04 3.6749646954275454e-04 0.0000000000000000e+00  3.6765871459531346e-04 -3.8653783802383821e-04 0.0000000000000000e+00  3.6785583531182459e-04 3.8535068751539001e-04 0.0000000000000000e+00  1.5791220742120916e-04 8.8982240333103921e-04 0.0000000000000000e+00  -7.2969009382043652e-04 2.4221172159293882e-04 0.0000000000000000e+00  -7.3575912749797008e-04 -1.4941487046914130e-04 0.0000000000000000e+00  -5.6924480048657542e-05 5.4090638231322726e-04 0.0000000000000000e+00  5.3757501039109910e-04 -1.7960662416100808e-04 0.0000000000000000e+00  -6.8976126011634871e-04 -4.5407334465217140e-05 0.0000000000000000e+00  -9.6809773228512296e-04 -3.9549120280601730e-08 0.0000000000000000e+00  -1.6367788117229817e-04 -7.9592074908894537e-04 0.0000000000000000e+00  3.4049801692951660e-04 6.9799327956678026e-04 0.0000000000000000e+00  -1.2878302149912055e-08 -9.6814675339332800e-04 0.0000000000000000e+00  1.8811988904018649e-04 -6.0435661792550277e-04 0.0000000000000000e+00  -4.0099296877158772e-04 -4.0543190569321366e-08 0.0000000000000000e+00  -5.1480459614027560e-04 -4.0683698130349256e-04 0.0000000000000000e+00  4.3607031050374875e-05 -8.7236582560867133e-04 0.0000000000000000e+00  5.5683256756534959e-04 -4.1324820996535257e-04 0.0000000000000000e+00  9.5945448484004148e-04 -8.3825387445670061e-05 0.0000000000000000e+00  5.1330718313221128e-04 -1.4362839756358739e-04 0.0000000000000000e+00  -1.5896261570236885e-04 8.8265985218404387e-04 0.0000000000000000e+00  -1.0549185472554526e-04 -4.4298961559740592e-04 0.0000000000000000e+00  -1.3706543016851465e-04 8.9519145844453400e-04 0.0000000000000000e+00  4.1892456274456068e-05 -9.8260773606031636e-04 0.0000000000000000e+00  -1.9854705314087772e-04 8.4574492980667301e-04 0.0000000000000000e+00  -6.7387672231747042e-09 -9.6814500782879491e-04 0.0000000000000000e+00  -7.7704263111731648e-05 -5.0367637641270634e-04 0.0000000000000000e+00  1.0348294328232904e-03 9.1221008287381455e-06 0.0000000000000000e+00  4.0098177809409021e-04 -3.6432507241251703e-08 0.0000000000000000e+00  -3.3464251982907623e-04 4.4009755149766256e-04 0.0000000000000000e+00  -2.8912836716884919e-04 -6.5809761475204437e-04 0.0000000000000000e+00  -3.1373151902362761e-04 -3.2212176095738893e-04 0.0000000000000000e+00  -1.3111988900941212e-08 -4.0104661969237473e-04 0.0000000000000000e+00  -3.9425070491254697e-04 -5.4747818725810139e-04 0.0000000000000000e+00  3.0819495768661715e-04 -7.1882471710542470e-04 0.0000000000000000e+00  4.9396804903914309e-04 3.5453620976102877e-04 0.0000000000000000e+00  -3.7407575640535840e-04 5.9409408647790099e-04 0.0000000000000000e+00  3.8977469776881847e-05 -9.3177798208673686e-04 0.0000000000000000e+00  6.1655115648532536e-04 -4.2483749451533408e-04 0.0000000000000000e+00  -9.6915426598241021e-04 -6.0236236865850388e-06 0.0000000000000000e+00  -8.7963601983732150e-04 -1.5947399939308067e-04 0.0000000000000000e+00  -7.7946607362270215e-04 2.3431330860009377e-04 0.0000000000000000e+00  2.3579434134805347e-04 -7.7876600188356694e-04 0.0000000000000000e+00  3.1577210702297579e-04 7.0573410396331448e-04 0.0000000000000000e+00  7.4740369958824790e-04 -1.1136940410146781e-05 0.0000000000000000e+00  -1.4362717987356217e-08 4.0095051350919243e-04 0.0000000000000000e+00  4.0163647603688176e-04 1.8076646316893548e-04 0.0000000000000000e+00  9.4948888268132816e-04 7.8191028527843984e-05 0.0000000000000000e+00  7.0784590276110190e-04 3.0448579924560531e-04 0.0000000000000000e+00  -1.6341529104855953e-08 -4.0103216269709121e-04 0.0000000000000000e+00  -6.3017496206860095e-04 -3.5103801837906636e-04 0.0000000000000000e+00  -2.0798395905140027e-04 -8.3585384742135066e-04 0.0000000000000000e+00  8.1841261344722793e-04 -3.6400922145705196e-07 0.0000000000000000e+00  -7.0676692491157046e-04 -1.2793551114166342e-04 0.0000000000000000e+00  7.6210716062198440e-04 2.8042442263550768e-04 0.0000000000000000e+00  -5.4017517757512913e-04 4.9116531532888117e-04 0.0000000000000000e+00  -1.1397999485762892e-08 9.6805665388348275e-04 0.0000000000000000e+00  2.1177052453807629e-04 -8.3612251026581692e-04 0.0000000000000000e+00  7.4646312456714918e-04 -2.6179289407935678e-04 0.0000000000000000e+00  -3.5244051633413260e-04 2.2822242578511418e-04 0.0000000000000000e+00  -3.0937982822690999e-04 5.3545547756369877e-04 0.0000000000000000e+00  -1.3166955012032633e-04 -7.0729777939272252e-04 0.0000000000000000e+00  -1.2878302149912055e-08 -9.6814675339332800e-04 0.0000000000000000e+00  1.4871079658038360e-05 1.0099282421239236e-03 0.0000000000000000e+00  8.1554028216914700e-04 -2.1221632680697774e-04 0.0000000000000000e+00  -1.0297733354756222e-03 -1.8064127609868905e-06 0.0000000000000000e+00  -8.8188147619287392e-04 -1.6568208763237684e-04 0.0000000000000000e+00  -7.9044177415059228e-04 2.3798177640803876e-04 0.0000000000000000e+00  -5.8399029826954312e-04 -3.3743219443786211e-04 0.0000000000000000e+00  -3.7397420189098124e-09 4.0096229032307736e-04 0.0000000000000000e+00  4.0098177809409021e-04 -3.6432507241251703e-08 0.0000000000000000e+00  -4.0101294678467232e-04 -4.5357891334917519e-08 0.0000000000000000e+00  -1.6341529104855953e-08 -4.0103216269709121e-04 0.0000000000000000e+00  -1.8679102907827559e-05 -4.1927039133927535e-04 0.0000000000000000e+00  1.9148563756051664e-04 -7.2624561538720152e-04 0.0000000000000000e+00  -3.4050146797800357e-04 -6.9868240249178063e-04 0.0000000000000000e+00  -6.7389765684713863e-05 6.4290020096227640e-04 0.0000000000000000e+00  3.5498900710285556e-05 9.6027206049843739e-04 0.0000000000000000e+00  -8.0959368878778836e-05 3.9131633071523488e-04 0.0000000000000000e+00  -3.7397420189098124e-09 4.0096229032307736e-04 0.0000000000000000e+00  -4.0101294678467232e-04 -4.5357891334917519e-08 0.0000000000000000e+00  5.9563220277414374e-04 -4.2407492919717348e-05 0.0000000000000000e+00  3.9345779545191923e-04 -2.1220071383676401e-04 0.0000000000000000e+00  7.7382680721292966e-04 2.5649711177825739e-04 0.0000000000000000e+00  -1.0509756413894208e-04 -9.3856825909600754e-04 0.0000000000000000e+00  -3.4370649919107347e-05 -1.0085446858914598e-03 0.0000000000000000e+00  -3.9552991841565959e-04 -2.5389697929454371e-04 0.0000000000000000e+00  -4.1248535539553118e-04 -1.1631467213361924e-05 0.0000000000000000e+00  -3.6851846942166634e-08 4.0132682126820614e-04 0.0000000000000000e+00  -1.1397999485762892e-08 9.6805665388348275e-04 0.0000000000000000e+00  -1.2323031108637763e-08 9.6806040153688791e-04 0.0000000000000000e+00  4.0099931138737983e-04 -3.3638549149853416e-08 0.0000000000000000e+00  -1.4362717987356217e-08 4.0095051350919243e-04 0.0000000000000000e+00  -9.6809773228512296e-04 -3.9549120280601730e-08 0.0000000000000000e+00  -4.0099296877158772e-04 -4.0543190569321366e-08 0.0000000000000000e+00  -9.6810496073621239e-04 -3.6717797957285445e-08 0.0000000000000000e+00  -6.7387672231747042e-09 -9.6814500782879491e-04 0.0000000000000000e+00  -1.3111988900941212e-08 -4.0104661969237473e-04 0.0000000000000000e+00  -1.2323031108637763e-08 9.6806040153688791e-04 0.0000000000000000e+00  -9.6810496073621239e-04 -3.6717797957285445e-08 0.0000000000000000e+00  4.0099931138737983e-04 -3.3638549149853416e-08 0.0000000000000000e+00  9.6809469029259670e-04 -3.6614971182638503e-08 0.0000000000000000e+00  9.6809008983147983e-04 -3.6754727146447043e-08 0.0000000000000000e+00  9.6809469029259670e-04 -3.6614971182638503e-08 0.0000000000000000e+00  9.6809008983147983e-04 -3.6754727146447043e-08 0.0000000000000000e+00  3.6722186536159720e-04 4.7861676525019249e-04 0.0000000000000000e+00  -7.1447706788000504e-04 1.5070938431617888e-04 0.0000000000000000e+00  6.8164583647056516e-04 -2.8134319767536927e-04 0.0000000000000000e+00  3.7766041756523720e-04 -3.7771459363869346e-04 0.0000000000000000e+00  4.9674872793125497e-04 -4.5101302975199118e-04 0.0000000000000000e+00  1.1499177881374529e-04 -2.8105605260061214e-04 0.0000000000000000e+00  5.5337290694761304e-04 1.5860116713987244e-04 0.0000000000000000e+00  -2.3351296963204949e-04 7.7455627373968080e-04 0.0000000000000000e+00  -9.7105754595633949e-04 1.3136175500078958e-05 0.0000000000000000e+00  -3.6556797495859174e-04 9.4058779220864672e-05 0.0000000000000000e+00  1.2428061327846354e-04 9.2351889482967240e-04 0.0000000000000000e+00  2.0146021748091559e-04 8.1241536242847279e-04 0.0000000000000000e+00  -1.6273175301878955e-04 6.9953041956345469e-04 0.0000000000000000e+00  -4.3328843300374467e-04 -2.7738411294625054e-04 0.0000000000000000e+00  -2.2511530325203025e-04 4.6112393255596078e-05 0.0000000000000000e+00  -3.9402736949990488e-04 -2.2143783898975452e-04 0.0000000000000000e+00  8.2559396785584235e-04 -1.2184164055582824e-04 0.0000000000000000e+00  2.6339661368266333e-04 -6.7484866596937982e-04 0.0000000000000000e+00  2.6029329455212817e-04 5.7577395122276952e-04 0.0000000000000000e+00  2.0242041881651576e-04 7.2853902060920645e-04 0.0000000000000000e+00  -6.3122259280663296e-04 3.1278029911695974e-04 0.0000000000000000e+00  -7.2913869033216006e-05 9.3784458205763393e-05 0.0000000000000000e+00  1.1866862336854499e-05 9.7947961099621034e-04 0.0000000000000000e+00  3.4528301587563434e-05 -1.1693799552002198e-04 0.0000000000000000e+00  -3.0649189422142227e-04 6.8787542545193888e-04 0.0000000000000000e+00  -6.4376002023025123e-04 -3.9903568637685651e-04 0.0000000000000000e+00  1.6376512009809129e-04 -8.7327054255632798e-04 0.0000000000000000e+00  -1.7485461815344800e-04 -8.6770224703110427e-04 0.0000000000000000e+00  4.6516691509722438e-04 5.6495843091798777e-04 0.0000000000000000e+00  -1.7736713598355270e-05 4.8283888386098210e-04 0.0000000000000000e+00  1.9418671868894614e-04 -2.9559136155661380e-04 0.0000000000000000e+00  6.7033796781542482e-04 -3.5393567547818970e-04 0.0000000000000000e+00  2.6039939472356766e-04 -6.6856940081919407e-04 0.0000000000000000e+00  -5.0889716376704226e-04 -5.3572017127017702e-04 0.0000000000000000e+00  -4.0890234290370640e-04 3.2895146607699613e-04 0.0000000000000000e+00  -2.6289491430531305e-04 6.6120114274872239e-04 0.0000000000000000e+00  2.8904472564304345e-04 5.1005196919551798e-04 0.0000000000000000e+00  -9.4987738416801393e-04 9.7905654246097597e-05 0.0000000000000000e+00  5.7738728533906136e-04 1.2515491102842611e-04 0.0000000000000000e+00  4.5358901532137629e-04 5.5193930674148095e-04 0.0000000000000000e+00  -1.6493861653787438e-04 8.3486036299310323e-04 0.0000000000000000e+00  -9.1138090577049468e-04 7.0719755422281774e-05 0.0000000000000000e+00  9.8219817678087237e-04 -4.0213845489619827e-05 0.0000000000000000e+00  1.8335439082642850e-04 6.8247148493045617e-04 0.0000000000000000e+00  6.8190101593156136e-04 1.9677840537783570e-04 0.0000000000000000e+00  3.3417647865518162e-04 1.4388867871320185e-04 0.0000000000000000e+00  1.8291022700245397e-04 4.5183321643390949e-04 0.0000000000000000e+00  -7.7337386989084441e-04 2.6501584174706719e-04 0.0000000000000000e+00  -6.1228178130760813e-04 6.8829999164412436e-05 0.0000000000000000e+00  1.7237532034464716e-04 -6.3928328750005798e-04 0.0000000000000000e+00  -5.9573919097896601e-06 9.8910683385186019e-04 0.0000000000000000e+00  -9.9097682766660969e-04 -2.2558140717900152e-05 0.0000000000000000e+00  4.8636634209167720e-05 -9.8473668055875795e-04 0.0000000000000000e+00  -5.6299082408288612e-05 -9.8716190920598748e-04 0.0000000000000000e+00  2.1635477632091886e-05 -2.0248553370866076e-04 0.0000000000000000e+00  3.9348730130358905e-04 6.2958086037946507e-04 0.0000000000000000e+00  -6.5088508407785939e-04 2.6421365426571345e-04 0.0000000000000000e+00  -8.4158674685347052e-04 1.5063408663446744e-04 0.0000000000000000e+00  -2.3966400146254466e-04 7.6500586947916675e-04 0.0000000000000000e+00  -4.2481830402901432e-05 5.3825464117436149e-04 0.0000000000000000e+00  -2.8232939790746404e-05 8.1842139461537483e-04 0.0000000000000000e+00  -7.7972222904715445e-04 -2.1032369732806733e-04 0.0000000000000000e+00  -1.9455318718499337e-04 -7.7976098319187156e-04 0.0000000000000000e+00  3.1270734027870719e-04 -1.2912665015453307e-04 0.0000000000000000e+00  2.3837744066202094e-04 -5.9201094987733653e-04 0.0000000000000000e+00  7.2683462158472519e-04 -2.3428679672877990e-04 0.0000000000000000e+00  3.3825618157688498e-05 -8.8951169437524638e-04 0.0000000000000000e+00  9.3886374463478001e-04 1.0864244884505985e-04 0.0000000000000000e+00  7.8566431494907175e-04 -2.4608841005572998e-04 0.0000000000000000e+00  -8.2431365401092703e-04 -1.3575776283259396e-04 0.0000000000000000e+00  3.8649753659693396e-04 6.6100355909769280e-04 0.0000000000000000e+00  2.2896769946033853e-04 7.3986169750243035e-04 0.0000000000000000e+00  2.5663987393521859e-05 9.3167550272536803e-04 0.0000000000000000e+00  2.5418515912439709e-06 1.0172055634469850e-03 0.0000000000000000e+00  -5.0860008682433493e-05 9.9524715100649062e-04 0.0000000000000000e+00  -3.0696245979934105e-04 6.3129158171436415e-04 0.0000000000000000e+00  -5.9043831963031992e-04 4.5226652497282698e-04 0.0000000000000000e+00  -8.8963295609613316e-04 3.8528520828557278e-05 0.0000000000000000e+00  4.8338377510773341e-04 7.5859848806564023e-05 0.000