<?xml version="1.0"?>
<VTKFile type="UnstructuredGrid"  version="0.1"  >
<UnstructuredGrid>
<Piece  NumberOfPoints="5315" NumberOfCells="10372">
<Points>
<DataArray  type="Float64"  NumberOfComponents="3"  format="ascii">-1 -1 0  1 -1 0  1 1 0  -1 1 0  0 -1 0  1 0 0  0 1 0  -1 0 0  0 0 0  -1 -0.5 0  -0.5 -1 0  -0.5 1 0  -1 0.5 0  1 -0.5 0  0.5 -1 0  1 0.5 0  0.5 1 0  0.4166666666666666 -0.4166666666666667 0  -0.4166666666666667 0.4166666666666667 0  -0.25 -0.5 0  0.5 0.25 0  -0.4861111111111112 -0.06944444444444445 0  0.0732758620689655 0.507183908045977 0  -0.625 -0.625 0  0.625 0.625 0  0.7380952380952381 -0.25 0  -0.7099116161616161 0.2105429292929293 0  -0.25 0.7380952380952381 0  0.105392156862745 -0.6348039215686275 0  0.6770833333333334 -0.6770833333333333 0  -0.6770833333333334 0.6770833333333334 0  0.3472222222222222 -0.06944444444444446 0  -0.7264957264957265 -0.3044871794871795 0  0.3141940982507127 0.7297313660835709 0  0.02049587951122483 -0.3227479397556124 0  -0.2690972222222223 0.1475694444444444 0  0.3859500089908372 -0.7274430156831472 0  -0.2228477945123298 -0.1761765495248019 0  0.2182539682539683 0.1884920634920635 0  0.75 0.375 0  -0.145442219440968 -0.7602211097204841 0  0.7088913690476191 0.0427827380952381 0  -0.75 -1 0  -1 -0.75 0  1 0.75 0  0.75 1 0  -0.7439982703698937 -0.04614153195464455 0  -0.4609235096577606 -0.3356498099556895 0  0.4063134471431929 0.4895621842856023 0  0.25 -1 0  -0.25 -1 0  -0.75 1 0  0.75 -1 0  -1 -0.25 0  -1 0.25 0  1 -0.25 0  -0.25 1 0  1 -0.75 0  -1 0.75 0  0.25 1 0  1 0.25 0  -0.4041423272138783 -0.7597141090712928 0  0.06500839607911253 0.7578103030529481 0  -0.1572801182352047 0.3838997021864289 0  -0.6528005242053915 0.4409494757946086 0  -0.4930160984848485 0.1544744318181818 0  -0.4732142857142858 0.7752976190476191 0  0.6398809523809523 -0.4538690476190476 0  0.5166054117396399 -0.2161233620965164 0  -0.002273787244753427 0.2232363985975174 0  0.1500564496765022 -0.1524955293952667 0  0.2016720420046758 -0.4410343282803009 0  -0.08495178036419618 0.6274139771124571 0  -0.8367311471133162 0.3642591720794645 0  -0.8333333333333334 -0.625 0  -0.594323836800685 -0.8231079456002283 0  -0.4466957714776065 -0.5349126855671806 0  0.8125 0.5625 0  0.78125 0.78125 0  0.5091392650016769 0.7947130883338923 0  0.125 -0.8382681931833136 0  -0.8184523809523809 -0.8184523809523809 0  -0.07781530426104531 -0.5819319697006881 0  0.5085055196703295 0.04967610411902112 0  0.2918471072074933 -0.276017202318847 0  0.5120763537765269 -0.5898771553229597 0  0.625 -0.8585349462365591 0  0.8158532234335381 -0.8158532234335381 0  -0.5198088446315396 0.5739411553684605 0  -0.8585349462365591 0.625 0  -0.8150493805516597 0.8156205699829586 0  0.8585349462365591 -0.625 0  -0.2688268348649726 0.5439331383603209 0  0.8242100426758139 -0.4436043596336612 0  0.5833756314287952 0.4479378157143976 0  0.8690476190476191 -0.125 0  -0.125 0.8690476190476191 0  -0.8692745600729823 0.125 0  0.8696725120759167 0.125 0  -0.625 0.8711516477451908 0  0.2339522463269718 0.3879558377955778 0  0.2453709502295031 0.5655822922838026 0  0.1730610651637797 0.02021709580868947 0  0.3245402594056757 -0.5644672020485209 0  -0.7291666666666666 -0.4816595441595442 0  -1 -0.375 0  -0.5811140848639904 -0.2127276307675001 0  0.673332592838314 0.2158348143233718 0  0.375 1 0  -0.5714768890989919 0.2985103444040069 0  -1 -0.125 0  -0.8453692574786325 -0.1875 0  -0.3144549134065865 -0.02408675326008025 0  -0.2898414972096258 -0.3336092734780093 0  -0.1075052092206287 -0.4224330421314983 0  -0.05043970703604117 -0.1652278959397459 0  0.6459672950297897 -0.1113415301525317 0  0.4645210271029513 0.6398480556579343 0  0.3512863754411909 0.0937979496253573 0  -0.6063160985568274 0.03891469652249891 0  -0.3428819444444445 0.8690476190476191 0  0.625 1 0  -0.1602164796159982 0.02697860906625157 0  0.04648110064133829 -0.4808416424239687 0  1 0.875 0  -0.3836102479201657 0.6484936449177356 0  -0.3776011723096096 0.263078478984336 0  -0.6024978259969829 -0.3949628096211138 0  0.125 1 0  0.2010781308272777 0.8456221018461906 0  0.2822509696388829 -0.845902544691141 0  -0.3285533674953515 -0.6289773550938936 0  0.3461306793221754 0.278777492464833 0  0.4737475672408696 -0.8508448959534423 0  0.2384632828836344 -0.7029523187242811 0  -0.004777287059791593 0.3759269695907358 0  -0.8499735021850066 -0.3912320205328522 0  0.1222536293721587 0.2963971539625205 0  -0.3769456520999688 -0.203572526805711 0  -0.2749617205755651 -0.8464290792698902 0  0.004805888512766143 -0.747174355248311 0  -0.125 -1 0  -0.06001061822252458 -0.8724007765244854 0  0.875 0.4375 0  0.854421179608893 0.271342359217786 0  0.875 1 0  -0.1499861095763589 0.2358309656934888 0  0.3381943639137225 0.8663061796405532 0  -0.7853090110442228 0.4998412775277108 0  0.7398165998560814 -0.5535192694951373 0  0.1580042122341573 -0.3100246140259917 0  -0.7291666666666667 -0.7142857142857142 0  -0.375 -1 0  0.6483368386154684 0.8514905990110488 0  -0.1295370103291928 -0.2826118305021242 0  0.07458201853700455 0.1123894386563915 0  0.6146465857036327 -0.3161203659316075 0  0.5551898493894731 -0.740296118159085 0  0.375 -1 0  0.482702798370208 -0.084133350091034 0  0.87890625 0.68359375 0  -0.05917195534525846 0.4971092425697621 0  0.1260710309213975 0.6343750312956699 0  0.8690476190476191 -0.3077066815262848 0  -0.2912010232560567 0.3668168386732139 0  -0.875 1 0  -1 0.875 0  1 -0.875 0  0.875 -1 0  -0.8689564281364567 -0.006189266075306407 0  -0.7449425635110547 0.08458938160051771 0  -0.7150266761936593 -0.1739444581417552 0  -0.5260034831318311 -0.711099823962112 0  -0.4724626808827322 -0.871722230709409 0  0.4734436795977052 0.377714794132168 0  -0.875 -1 0  -1 -0.875 0  0.6927189078571988 0.5156567235715964 0  -0.3742497615796874 -0.4296005251260107 0  -0.1969436423297711 -0.6387157229772615 0  -0.6179496409766825 -0.08933356056510935 0  -0.424405057115988 0.04452428810878029 0  -0.08479048335844169 0.1279607007132633 0  0.003830300099055113 0.8712085230656206 0  0.8748778838820267 -1.379218479898026e-05 0  -0.375 1 0  -0.625 1 0  1 0.125 0  -0.125 1 0  1 -0.375 0  1 -0.125 0  1 -0.625 0  0.625 -1 0  0.125 -1 0  -0.625 -1 0  -1 -0.625 0  -1 0.125 0  -1 0.375 0  -1 0.625 0  1 0.375 0  1 0.625 0  0.6325660748712082 0.3335187599557389 0  -0.06420945895056573 0.7549874027425891 0  -0.8769015540914771 0.2478802253893416 0  0.871875 0.871875 0  -0.6868091492840067 0.3270978624973681 0  -0.5363597469565949 0.412994850055505 0  -0.6803734992638302 0.5574295000651103 0  -0.7076253581162534 -0.8803439094224437 0  -0.8778089002295137 -0.5106896447504627 0  -0.3860184984222981 0.530566778071246 0  0.6109900617121508 0.1128453077697081 0  0.3896945134930274 -0.1915382873255086 0  0.7605656944697778 -0.06822134873122943 0  0.3576151269893478 0.5948388411612135 0  -0.5689902680792265 -0.5143596830118065 0  0.6262446286847614 -0.5735657901943212 0  0.2030558252325225 -0.5625263842513452 0  0.6123273142928579 0.7407533260723429 0  0.4016460890123554 -0.3042863223111857 0  -0.59039693199147 0.7578418819188018 0  0.7276932493917544 -0.3705808024528924 0  0.5222536818742854 -0.4713886230400014 0  -0.5101986527137737 0.8848365765607674 0  0.510560172809238 0.5356013299918891 0  -0.3603569195756083 0.75823710606415 0  0.1967279277813232 0.728226870058472 0  -0.6086880986371127 0.1545624071548516 0  -0.38105366729386 0.1511189987807864 0  -0.2944659463671584 -0.7359061804869591 0  0.5060729154966499 -0.3475227845833823 0  -0.09281616240412746 -0.06197858250969457 0  0.7649739583333334 0.6673177083333334 0  0.7628906249999999 0.890234375 0  -0.2666864184909611 0.2585504071132311 0  0.3635064892129658 0.3878003602709461 0  -0.2339409722222222 0.8901937905844155 0  -0.1718792125974916 -0.8957733325456778 0  0.1001768566329531 0.4023510017391879 0  0.3120260172693757 -0.4540546875576884 0  0.7804062804433681 0.1896628610854537 0  0.4087715451998049 0.187961780041608 0  -0.1584963477271457 0.5451611892421655 0  -0.8926817849258324 0.463022006336401 0  0.2338091473445219 -0.07576267331277289 0  0.08171112182813692 -0.2349087687359925 0  0.04635385178956847 -0.1044635073718474 0  -0.4377391632114205 -0.6448874471423088 0  -0.1907678351227189 0.6480215912813945 0  0.300605946475244 0.4741444604171038 0  -0.2145033720757486 -0.06751709909419711 0  0.6069191921170397 -0.005492331448357812 0  0.0214718770761248 0.6032397936031719 0  0.5476675683364878 0.8992752415326501 0  0.4387475014316537 0.9093708953002239 0  -0.4932997685306436 -0.4381009159993523 0  0.2515197695339056 -0.1791673369138964 0  -0.7291666666666667 -0.6088789682539681 0  -0.9166666666666667 -0.6875 0  0.620579540363709 -0.2122431523583302 0  -0.484950136419973 0.6719440339397442 0  0.2857044415400258 0.0137589173127316 0  -0.8945708364098356 -0.288306105327986 0  0.4043102720140535 0.7842914560451557 0  0.04123256238752064 -0.9026968245801402 0  0.2003676884403109 -0.9091888601740487 0  0.1068775558538842 -0.7373377130403223 0  -0.4804566783514427 -0.1763307203045643 0  0.108286342087769 -0.3993789328997278 0  -0.191883080105361 -0.3640821726430649 0  -0.07025064492006244 0.2984876656890053 0  -0.7039324641409584 0.788312126296613 0  -0.7311286585775438 0.8932502354831682 0  0.5171409396884947 0.1503852691889257 0  0.4229392823658633 -0.003216522184234835 0  -0.5621736087218259 -0.919558629836806 0  -0.626474064879544 -0.7266572613636506 0  0.2446828746617422 0.2867616783302419 0  0.1759429608742923 0.4776611759306416 0  -0.3468240303741654 -0.5260416435617549 0  -0.7465808808425306 0.4069574477998361 0  -0.7819962170660292 0.2802441065650652 0  -0.3742623214119594 -0.8547800509641984 0  0.1014498009713561 0.8506721983266377 0  0.4285217620918213 -0.5230190595570253 0  0.4091738370487775 -0.6256346204225141 0  0.78125 0.46875 0  0.90625 0.53125 0  -0.4791801348852565 0.2553992655702126 0  0.7843318610782772 -0.7086046956885941 0  0.8909728264971901 -0.7355183796514634 0  0.7041908166528879 -0.7830649143180282 0  0.731182135
[...]
<PointData  Vectors="f_21"> 
<DataArray  type="Float64"  Name="f_21"  NumberOfComponents="3" format="ascii">-2.4639926865448126e-07 -7.8177811809275498e-07 0.0000000000000000e+00  -2.4639926865448126e-07 -7.8177811809275498e-07 0.0000000000000000e+00  -2.4639926865448126e-07 -7.8177811809275498e-07 0.0000000000000000e+00  -2.4639926865448126e-07 -7.8177811809275498e-07 0.0000000000000000e+00  -4.6594348408808202e-08 -1.1716381671165189e-06 0.0000000000000000e+00  1.3348288425480769e-07 -2.1638706040568682e-07 0.0000000000000000e+00  -4.6594348408808202e-08 -1.1716381671165189e-06 0.0000000000000000e+00  1.3348288425480769e-07 -2.1638706040568682e-07 0.0000000000000000e+00  -8.0333353211383581e-07 1.4457402874362778e-06 0.0000000000000000e+00  -3.5346331532808320e-02 -4.1121081081072484e-07 0.0000000000000000e+00  -1.1824973158272246e-07 3.5346656670255570e-02 0.0000000000000000e+00  -1.1824973158272246e-07 3.5346656670255570e-02 0.0000000000000000e+00  3.5347556328836280e-02 3.1149615173608565e-08 0.0000000000000000e+00  -3.5346331532808320e-02 -4.1121081081072484e-07 0.0000000000000000e+00  -3.7850058658681422e-07 -3.5346030333147919e-02 0.0000000000000000e+00  3.5347556328836280e-02 3.1149615173608565e-08 0.0000000000000000e+00  -3.7850058658681422e-07 -3.5346030333147919e-02 0.0000000000000000e+00  8.8370658460388187e-03 8.8363947930197896e-03 0.0000000000000000e+00  -8.8377561952235704e-03 -8.8365371188676347e-03 0.0000000000000000e+00  2.4993464757685983e-02 4.4638474894758176e-07 0.0000000000000000e+00  -3.9503581181954770e-08 2.4994114773403325e-02 0.0000000000000000e+00  3.3468317673809454e-04 -3.4476379001423960e-02 0.0000000000000000e+00  -3.4404690884592477e-02 -1.8278419532198292e-04 0.0000000000000000e+00  -1.2496605093308228e-02 1.2496676761493448e-02 0.0000000000000000e+00  1.2496289060709298e-02 -1.2496928488028898e-02 0.0000000000000000e+00  -1.7000227882480422e-02 1.8321366429022899e-02 0.0000000000000000e+00  1.3303311167304254e-02 -2.2043523322279730e-02 0.0000000000000000e+00  -1.8322129508521499e-02 1.6999617308723833e-02 0.0000000000000000e+00  3.0473574375164025e-02 -4.7219468312690409e-03 0.0000000000000000e+00  -1.5851120741840544e-02 -1.5850127283798501e-02 0.0000000000000000e+00  1.5850755079209758e-02 1.5850273652295813e-02 0.0000000000000000e+00  3.5326064474270522e-03 3.0609683286513228e-02 0.0000000000000000e+00  -1.8862613374769192e-02 -1.5428094679984719e-02 0.0000000000000000e+00  -1.4623670005465007e-02 -1.9486012359648194e-02 0.0000000000000000e+00  2.9944175740510330e-02 1.2017033220880363e-03 0.0000000000000000e+00  -1.0486808007955399e-02 -2.3655424553408931e-02 0.0000000000000000e+00  9.3630042771058776e-03 -2.1690177064587680e-02 0.0000000000000000e+00  1.4209228919452034e-02 -1.9373829507365898e-02 0.0000000000000000e+00  -1.5270134615552199e-02 1.8570211246967908e-02 0.0000000000000000e+00  2.3091090559485553e-02 9.5648563358901647e-03 0.0000000000000000e+00  2.1697738270732295e-02 1.1375465147639130e-02 0.0000000000000000e+00  2.8894616809979367e-03 2.7752171957303423e-02 0.0000000000000000e+00  2.0158788723398563e-07 2.4994207345915127e-02 0.0000000000000000e+00  -2.4993553630988333e-02 3.3926302141701754e-07 0.0000000000000000e+00  2.4994021636240146e-02 -2.9237409901105072e-07 0.0000000000000000e+00  -4.9339397814346491e-07 -2.4993451301124247e-02 0.0000000000000000e+00  -3.5412006497810506e-03 -2.5193252167072386e-02 0.0000000000000000e+00  3.7646188914420130e-03 -1.7318994991348403e-02 0.0000000000000000e+00  -1.0248303293669376e-02 1.1076405763895971e-03 0.0000000000000000e+00  1.0925823316384166e-07 -2.4993977305982504e-02 0.0000000000000000e+00  -2.8491353993065569e-07 2.4994067743007581e-02 0.0000000000000000e+00  2.0158788723398563e-07 2.4994207345915127e-02 0.0000000000000000e+00  -4.9339397814346491e-07 -2.4993451301124247e-02 0.0000000000000000e+00  -2.4993073106488902e-02 -4.0151384484426132e-07 0.0000000000000000e+00  2.4993695827220587e-02 2.6702882450463481e-07 0.0000000000000000e+00  -2.4993073106488902e-02 -4.0151384484426132e-07 0.0000000000000000e+00  -2.8491353993065569e-07 2.4994067743007581e-02 0.0000000000000000e+00  -2.4993553630988333e-02 3.3926302141701754e-07 0.0000000000000000e+00  2.4994021636240146e-02 -2.9237409901105072e-07 0.0000000000000000e+00  1.0925823316384166e-07 -2.4993977305982504e-02 0.0000000000000000e+00  2.4993695827220587e-02 2.6702882450463481e-07 0.0000000000000000e+00  7.1829588422762120e-03 2.4586300121300867e-02 0.0000000000000000e+00  -2.3866002554324053e-02 -5.1923834437219863e-03 0.0000000000000000e+00  -2.9071918527995361e-02 -5.9796333329346476e-03 0.0000000000000000e+00  1.6043761403632992e-02 -5.7829252229692945e-03 0.0000000000000000e+00  -3.6212401389786378e-04 -3.1256589843713441e-02 0.0000000000000000e+00  -1.9274150080173596e-03 2.6803427704809916e-02 0.0000000000000000e+00  -1.4879915507671969e-02 4.6190209720593442e-03 0.0000000000000000e+00  -1.1584463318094799e-03 2.7469391960073725e-02 0.0000000000000000e+00  -2.2806371380276073e-02 -1.9249540267507245e-04 0.0000000000000000e+00  1.4516252896096583e-02 1.4245280254863458e-02 0.0000000000000000e+00  2.7999105503437833e-02 3.8545056663693384e-03 0.0000000000000000e+00  -3.1400394963280738e-02 3.6322713386167920e-03 0.0000000000000000e+00  2.8039678714420015e-02 -7.1752100781396237e-03 0.0000000000000000e+00  -2.8280329851546909e-02 6.7627243860462483e-03 0.0000000000000000e+00  -5.4448813294087819e-03 2.8718927551495101e-02 0.0000000000000000e+00  5.8561007622497238e-03 3.8155570248428719e-03 0.0000000000000000e+00  2.8824478217678286e-02 -3.8301080875775772e-03 0.0000000000000000e+00  1.7333457089363864e-02 -1.7333893872943845e-02 0.0000000000000000e+00  6.1061035227231520e-04 -2.8235845747299551e-02 0.0000000000000000e+00  1.5887774990816114e-02 -1.1817728212957651e-02 0.0000000000000000e+00  -1.6063467909090776e-02 1.6063550642044472e-02 0.0000000000000000e+00  3.3165375561578926e-02 2.1773252485975834e-03 0.0000000000000000e+00  1.4769402521286828e-04 3.4904969729462769e-02 0.0000000000000000e+00  1.6394879573565776e-02 1.8151182284902905e-02 0.0000000000000000e+00  -1.2881407444136660e-03 -9.8407064670322300e-03 0.0000000000000000e+00  -5.8157551965996824e-03 -2.9483210840529357e-02 0.0000000000000000e+00  -1.6182122248487103e-02 -1.6181644768618067e-02 0.0000000000000000e+00  2.1398130406991805e-03 8.1211215594304709e-03 0.0000000000000000e+00  2.9483665833637426e-02 5.8154412171870090e-03 0.0000000000000000e+00  1.6173203976337116e-02 1.6236299195988228e-02 0.0000000000000000e+00  -2.9483181818108158e-02 -5.8149544479489893e-03 0.0000000000000000e+00  -2.3250081924430836e-02 3.6351699934674799e-03 0.0000000000000000e+00  -2.9621212891551223e-02 3.2673585587840504e-03 0.0000000000000000e+00  9.0308087506928581e-03 5.5583661422938897e-03 0.0000000000000000e+00  -1.2397524368961341e-02 1.3058771856404699e-02 0.0000000000000000e+00  -1.3059082069223129e-02 1.2398209096645033e-02 0.0000000000000000e+00  1.2401794671623454e-02 -1.3036639097650586e-02 0.0000000000000000e+00  1.2408409432609326e-02 1.3000070664945667e-02 0.0000000000000000e+00  5.3275038033356653e-03 3.0016683544419328e-02 0.0000000000000000e+00  -2.4613283489526017e-02 8.1718916389822271e-03 0.0000000000000000e+00  -2.4818151379010660e-02 -5.0389688135080201e-03 0.0000000000000000e+00  -1.9203002636253310e-03 1.8247753320893824e-02 0.0000000000000000e+00  1.8133876389403392e-02 -6.0568630625742505e-03 0.0000000000000000e+00  -2.3266600925165429e-02 -1.5302829097423737e-03 0.0000000000000000e+00  -3.2655203583985423e-02 -2.5158326205455825e-07 0.0000000000000000e+00  -5.5211122121238548e-03 -2.6847077923495305e-02 0.0000000000000000e+00  1.1485663133074687e-02 2.3546166643408452e-02 0.0000000000000000e+00  1.3064029765518782e-07 -3.2656823552120712e-02 0.0000000000000000e+00  6.3461318211134547e-03 -2.0384133481281947e-02 0.0000000000000000e+00  -1.3526068363363401e-02 -1.0599501185191954e-07 0.0000000000000000e+00  -1.7364794518353856e-02 -1.3722577434769010e-02 0.0000000000000000e+00  1.4705986057947280e-03 -2.9424873744098936e-02 0.0000000000000000e+00  1.8782944125785551e-02 -1.3938262507000008e-02 0.0000000000000000e+00  3.2364663396751210e-02 -2.8269203878111770e-03 0.0000000000000000e+00  1.7313911252617459e-02 -4.8437081491830153e-03 0.0000000000000000e+00  -5.3626542791904899e-03 2.9774667707752715e-02 0.0000000000000000e+00  -3.5577133270694346e-03 -1.4941857500828760e-02 0.0000000000000000e+00  -4.6233242420289965e-03 3.0198298953780518e-02 0.0000000000000000e+00  1.4129822239743199e-03 -3.3143973775983569e-02 0.0000000000000000e+00  -6.6972715969629655e-03 2.8529787537426510e-02 0.0000000000000000e+00  1.3521150027031857e-07 -3.2657277247648796e-02 0.0000000000000000e+00  -2.6219981900797210e-03 -1.6988470822514156e-02 0.0000000000000000e+00  3.4907727108201468e-02 3.0912966621225724e-04 0.0000000000000000e+00  1.3526056242255538e-02 2.6482605555253066e-07 0.0000000000000000e+00  -1.1288050455312693e-02 1.4846878301376435e-02 0.0000000000000000e+00  -9.7527050421821783e-03 -2.2197107067876365e-02 0.0000000000000000e+00  -1.0581584761430212e-02 -1.0864013803642379e-02 0.0000000000000000e+00  -2.9161908634248881e-08 -1.3526761212360912e-02 0.0000000000000000e+00  -1.3298093065677901e-02 -1.8466166562714204e-02 0.0000000000000000e+00  1.0396582272328812e-02 -2.4245932693730345e-02 0.0000000000000000e+00  1.6662890789150040e-02 1.1960810339712639e-02 0.0000000000000000e+00  -1.2617382133827277e-02 2.0041798431862719e-02 0.0000000000000000e+00  1.3155023121639382e-03 -3.1428889400529868e-02 0.0000000000000000e+00  2.0797919086141540e-02 -1.4328769133771940e-02 0.0000000000000000e+00  -3.2691194487056784e-02 -2.0077512388750598e-04 0.0000000000000000e+00  -2.9671427923566279e-02 -5.3784750318161649e-03 0.0000000000000000e+00  -2.6292797438933108e-02 7.9058889794764563e-03 0.0000000000000000e+00  7.9530140707179016e-03 -2.6268096519381744e-02 0.0000000000000000e+00  1.0651639459241816e-02 2.3807339197801834e-02 0.0000000000000000e+00  2.5211410809732590e-02 -3.7398840886289570e-04 0.0000000000000000e+00  -2.8384152493630154e-07 1.3525986770395930e-02 0.0000000000000000e+00  1.3547843709894281e-02 6.0997979316679040e-03 0.0000000000000000e+00  3.2027483998391185e-02 2.6393207402395035e-03 0.0000000000000000e+00  2.3877047454396054e-02 1.0272405231133016e-02 0.0000000000000000e+00  -8.4440781939293081e-08 -1.3525610711321846e-02 0.0000000000000000e+00  -2.1257321558552353e-02 -1.1839604341463712e-02 0.0000000000000000e+00  -7.0149988909837379e-03 -2.8194041559820335e-02 0.0000000000000000e+00  2.7607145589497485e-02 -1.0948898961957592e-05 0.0000000000000000e+00  -2.3840792263693712e-02 -4.3149101834398639e-03 0.0000000000000000e+00  2.5708257739939441e-02 9.4606278052688508e-03 0.0000000000000000e+00  -1.8220671411448789e-02 1.6569573900203881e-02 0.0000000000000000e+00  2.6515441368089303e-07 3.2656062932354422e-02 0.0000000000000000e+00  7.1434879580195235e-03 -2.8201970526276515e-02 0.0000000000000000e+00  2.5179164454277807e-02 -8.8294339836278400e-03 0.0000000000000000e+00  -1.1888151055553584e-02 7.6999342604692489e-03 0.0000000000000000e+00  -1.0436536754756929e-02 1.8062821825289458e-02 0.0000000000000000e+00  -4.4409256121721221e-03 -2.3856738226849635e-02 0.0000000000000000e+00  1.3064029765518782e-07 -3.2656823552120712e-02 0.0000000000000000e+00  5.0167911463434248e-04 3.4067354649463366e-02 0.0000000000000000e+00  2.7510935826080829e-02 -7.1576095521227552e-03 0.0000000000000000e+00  -3.4736959398954090e-02 -5.9839970212232637e-05 0.0000000000000000e+00  -2.9746903437067682e-02 -5.5867724934054869e-03 0.0000000000000000e+00  -2.6663311704141816e-02 8.0287843892974196e-03 0.0000000000000000e+00  -1.9699301546803053e-02 -1.1380869669001835e-02 0.0000000000000000e+00  4.2151493189463330e-07 1.3525601953014204e-02 0.0000000000000000e+00  1.3526056242255538e-02 2.6482605555253066e-07 0.0000000000000000e+00  -1.3527620490277130e-02 7.6845946879458323e-08 0.0000000000000000e+00  -8.4440781939293081e-08 -1.3525610711321846e-02 0.0000000000000000e+00  -6.2934829083276993e-04 -1.4143061706680865e-02 0.0000000000000000e+00  6.4594222885868543e-03 -2.4495149651877334e-02 0.0000000000000000e+00  -1.1485670398882816e-02 -2.3566908612143271e-02 0.0000000000000000e+00  -2.2724182675019976e-03 2.1687744681572224e-02 0.0000000000000000e+00  1.1967869284728674e-03 3.2393470681245616e-02 0.0000000000000000e+00  -2.7308598615832808e-03 1.3201877326288297e-02 0.0000000000000000e+00  4.2151493189463330e-07 1.3525601953014204e-02 0.0000000000000000e+00  -1.3527620490277130e-02 7.6845946879458323e-08 0.0000000000000000e+00  2.0091959036766496e-02 -1.4294010757734165e-03 0.0000000000000000e+00  1.3271564889852046e-02 -7.1560125868782645e-03 0.0000000000000000e+00  2.6102525440703135e-02 8.6533504553575041e-03 0.0000000000000000e+00  -3.5449267613281640e-03 -3.1657450528084552e-02 0.0000000000000000e+00  -1.1591948017133401e-03 -3.4018137568138498e-02 0.0000000000000000e+00  -1.3342339636624153e-02 -8.5619622970248953e-03 0.0000000000000000e+00  -1.3913978777936778e-02 -3.9104969314787685e-04 0.0000000000000000e+00  -1.2592298022734060e-06 1.3539154319950071e-02 0.0000000000000000e+00  2.6515441368089303e-07 3.2656062932354422e-02 0.0000000000000000e+00  -5.0666189411147970e-07 3.2656230471278372e-02 0.0000000000000000e+00  1.3526138310314097e-02 3.4011381192968589e-07 0.0000000000000000e+00  -2.8384152493630154e-07 1.3525986770395930e-02 0.0000000000000000e+00  -3.2655203583985423e-02 -2.5158326205455825e-07 0.0000000000000000e+00  -1.3526068363363401e-02 -1.0599501185191954e-07 0.0000000000000000e+00  -3.2655622469847399e-02 -2.4530192327020626e-07 0.0000000000000000e+00  1.3521150027031857e-07 -3.2657277247648796e-02 0.0000000000000000e+00  -2.9161908634248881e-08 -1.3526761212360912e-02 0.0000000000000000e+00  -5.0666189411147970e-07 3.2656230471278372e-02 0.0000000000000000e+00  -3.2655622469847399e-02 -2.4530192327020626e-07 0.0000000000000000e+00  1.3526138310314097e-02 3.4011381192968589e-07 0.0000000000000000e+00  3.2655521752582559e-02 6.8822495941451010e-08 0.0000000000000000e+00  3.2656367751426947e-02 1.2207385247805595e-07 0.0000000000000000e+00  3.2655521752582559e-02 6.8822495941451010e-08 0.0000000000000000e+00  3.2656367751426947e-02 1.2207385247805595e-07 0.0000000000000000e+00  1.2387480521020643e-02 1.6146097046461635e-02 0.0000000000000000e+00  -2.4100203977504255e-02 5.0848942969404015e-03 0.0000000000000000e+00  2.2992939466263608e-02 -9.4887065014975756e-03 0.0000000000000000e+00  1.2739512349954253e-02 -1.2739484320052660e-02 0.0000000000000000e+00  1.6756742412814964e-02 -1.5212380414426338e-02 0.0000000000000000e+00  3.8785860345675956e-03 -9.4792752680156744e-03 0.0000000000000000e+00  1.8666785330984224e-02 5.3515781170120737e-03 0.0000000000000000e+00  -7.8764454194899004e-03 2.6128245251616371e-02 0.0000000000000000e+00  -3.2755752765649473e-02 4.4375957866365443e-04 0.0000000000000000e+00  -1.2331561121731612e-02 3.1738891801177437e-03 0.0000000000000000e+00  4.1919832469436979e-03 3.1153348531470608e-02 0.0000000000000000e+00  6.7946782341946343e-03 2.7405580338994630e-02 0.0000000000000000e+00  -5.4896640675817223e-03 2.3597721850149026e-02 0.0000000000000000e+00  -1.4615124508435811e-02 -9.3545763559299295e-03 0.0000000000000000e+00  -7.5927112121562971e-03 1.5567919061125939e-03 0.0000000000000000e+00  -1.3291547779714950e-02 -7.4678367620569950e-03 0.0000000000000000e+00  2.7849406428496544e-02 -4.1078412374639280e-03 0.0000000000000000e+00  8.8851958036285181e-03 -2.2762886402409740e-02 0.0000000000000000e+00  8.7807200506669642e-03 1.9423242697156402e-02 0.0000000000000000e+00  6.8287053454160985e-03 2.4576179583889485e-02 0.0000000000000000e+00  -2.1292506550831029e-02 1.0552101663592590e-02 0.0000000000000000e+00  -2.4604877080028668e-03 3.1652773772839317e-03 0.0000000000000000e+00  3.9996118751188238e-04 3.3040386471260702e-02 0.0000000000000000e+00  1.1651798320034940e-03 -3.9436033030759276e-03 0.0000000000000000e+00  -1.0338500394770861e-02 2.3204734486662208e-02 0.0000000000000000e+00  -2.1714747406303418e-02 -1.3458956458864451e-02 0.0000000000000000e+00  5.5241334362352906e-03 -2.9454866463237778e-02 0.0000000000000000e+00  -5.8981942919145635e-03 -2.9267903496754514e-02 0.0000000000000000e+00  1.5690981562923496e-02 1.9058925730602114e-02 0.0000000000000000e+00  -5.9813698836775925e-04 1.6288147814117339e-02 0.0000000000000000e+00  6.5502150144729401e-03 -9.9696978630131154e-03 0.0000000000000000e+00  2.2611731257839031e-02 -1.1937763032595370e-02 0.0000000000000000e+00  8.7840015197096829e-03 -2.2551424151376984e-02 0.0000000000000000e+00  -1.7166264757173123e-02 -1.8069192048585571e-02 0.0000000000000000e+00  -1.3792742706758190e-02 1.1098057765079961e-02 0.0000000000000000e+00  -8.8678122388919506e-03 2.2304785702105614e-02 0.0000000000000000e+00  9.7500925616365586e-03 1.7206185922141050e-02 0.0000000000000000e+00  -3.2040393659989876e-02 3.3048882927320705e-03 0.0000000000000000e+00  1.9477041049485347e-02 4.2219059820712244e-03 0.0000000000000000e+00  1.5300050673352951e-02 1.8619516349716619e-02 0.0000000000000000e+00  -5.5626122442152641e-03 2.8163662864011740e-02 0.0000000000000000e+00  -3.0742431894729205e-02 2.3875709358268859e-03 0.0000000000000000e+00  3.3132107931318010e-02 -1.3557970179320735e-03 0.0000000000000000e+00  6.1852695944786696e-03 2.3022220752879755e-02 0.0000000000000000e+00  2.3001821782650755e-02 6.6390863697097843e-03 0.0000000000000000e+00  1.1272581133773611e-02 4.8550955606699604e-03 0.0000000000000000e+00  6.1703604537948903e-03 1.5242592457192771e-02 0.0000000000000000e+00  -2.6087432814208025e-02 8.9415046979197041e-03 0.0000000000000000e+00  -2.0652871855490595e-02 2.3231539353300071e-03 0.0000000000000000e+00  5.8141862714060624e-03 -2.1562548684341452e-02 0.0000000000000000e+00  -2.0176761369610296e-04 3.3366144471454834e-02 0.0000000000000000e+00  -3.3427236844828720e-02 -7.5948925835323292e-04 0.0000000000000000e+00  1.6409514090649528e-03 -3.3215871482099556e-02 0.0000000000000000e+00  -1.8990368574358027e-03 -3.3297379156666598e-02 0.0000000000000000e+00  7.3019929371681016e-04 -6.8291926681941567e-03 0.0000000000000000e+00  1.3273328843034709e-02 2.1238538841667990e-02 0.0000000000000000e+00  -2.1955240730729571e-02 8.9136542658698869e-03 0.0000000000000000e+00  -2.8388600580140134e-02 5.0825011920434633e-03 0.0000000000000000e+00  -8.0846481354425546e-03 2.5806364410628158e-02 0.0000000000000000e+00  -1.4326688019425896e-03 1.8157715142866512e-02 0.0000000000000000e+00  -9.5242725332546872e-04 2.7608664155394036e-02 0.0000000000000000e+00  -2.6301492050650514e-02 -7.0939026644482542e-03 0.0000000000000000e+00  -6.5625067636969148e-03 -2.6301756394525852e-02 0.0000000000000000e+00  1.0548175015978621e-02 -4.3534069563169525e-03 0.0000000000000000e+00  8.0417632072972041e-03 -1.9968022883530261e-02 0.0000000000000000e+00  2.4518310009987790e-02 -7.9010842354369712e-03 0.0000000000000000e+00  1.1415849650143999e-03 -3.0004380378841768e-02 0.0000000000000000e+00  3.1669183883774689e-02 3.6660599195982527e-03 0.0000000000000000e+00  2.6501642419248139e-02 -8.2995592364746556e-03 0.0000000000000000e+00  -2.7805647950764924e-02 -4.5773205729732949e-03 0.0000000000000000e+00  1.3037961748722380e-02 2.2297967521686970e-02 0.0000000000000000e+00  7.7242010873288689e-03 2.4957860121492460e-02 0.0000000000000000e+00  8.6610886366983539e-04 3.1429036138303564e-02 0.0000000000000000e+00  8.6052683477447499e-05 3.4313576039777700e-02 0.0000000000000000e+00  -1.7148278210148029e-03 3.3572909664279511e-02 0.0000000000000000e+00  -1.0353754310254131e-02 2.1296341364159650e-02 0.0000000000000000e+00  -1.9916247211269930e-02 1.5257576699809521e-02 0.0000000000000000e+00  -3.0008604948017360e-02 1.3012980202694055e-03 0.0000000000000000e+00  1.6305477323942989e-02 2.5601836712546783e-03 0.0000000000000000e+00  2.367520208